<?xml version="1.0" encoding="UTF-8"?>

<!-- generated on 2022-02-11 14:52:57 by Eclipse SUMO sumo Version 1.10.0
<configuration xmlns:xsi="http://www.w3.org/2001/XMLSchema-instance" xsi:noNamespaceSchemaLocation="http://sumo.dlr.de/xsd/sumoConfiguration.xsd">

    <input>
        <net-file value="Net/NetworkCrossNotraficLight.net.xml"/>
        <route-files value="Net/NetworkNoTraf.rou.xml"/>
        <additional-files value="Net/calibrator.xml"/>
    </input>

    <output>
        <tripinfo-output value="tripinfo.xml"/>
    </output>

    <time>
        <step-length value="1"/>
    </time>

    <processing>
        <collision.action value="warn"/>
        <collision.check-junctions value="true"/>
        <collision.check-junctions.mingap value="0"/>
        <time-to-teleport value="-1"/>
    </processing>

    <traci_server>
        <remote-port value="58005"/>
    </traci_server>

    <random_number>
        <random value="true"/>
    </random_number>

    <gui_only>
        <tracker-interval value="1"/>
    </gui_only>

</configuration>
-->

<tripinfos xmlns:xsi="http://www.w3.org/2001/XMLSchema-instance" xsi:noNamespaceSchemaLocation="http://sumo.dlr.de/xsd/tripinfo_file.xsd">
    <tripinfo id="flow_3.0" depart="0.00" departLane="4to2_0" departPos="5.10" departSpeed="0.00" departDelay="0.00" arrival="16.00" arrivalLane="2to5_0" arrivalPos="92.80" arrivalSpeed="16.10" duration="16.00" routeLength="194.90" waitingTime="0.00" waitingCount="0" stopTime="0.00" timeLoss="3.80" rerouteNo="0" devices="tripinfo_flow_3.0" vType="type1" speedFactor="1.16" vaporized=""/>
    <tripinfo id="flow_1.0" depart="0.00" departLane="5to2_0" departPos="5.10" departSpeed="0.00" departDelay="0.00" arrival="22.00" arrivalLane="2to3_0" arrivalPos="92.80" arrivalSpeed="13.54" duration="22.00" routeLength="189.53" waitingTime="0.00" waitingCount="0" stopTime="4.00" timeLoss="3.29" rerouteNo="0" devices="tripinfo_flow_1.0" vType="type1" speedFactor="0.97" vaporized=""/>
    <tripinfo id="flow_2.0" depart="0.00" departLane="3to2_0" departPos="5.10" departSpeed="0.00" departDelay="0.00" arrival="22.00" arrivalLane="2to5_0" arrivalPos="92.80" arrivalSpeed="14.31" duration="22.00" routeLength="194.69" waitingTime="0.00" waitingCount="0" stopTime="4.00" timeLoss="3.61" rerouteNo="0" devices="tripinfo_flow_2.0" vType="type1" speedFactor="1.03" vaporized=""/>
    <tripinfo id="flow_0.0" depart="0.00" departLane="1to2_0" departPos="5.10" departSpeed="0.00" departDelay="0.00" arrival="28.00" arrivalLane="2to5_0" arrivalPos="92.80" arrivalSpeed="14.57" duration="28.00" routeLength="189.53" waitingTime="0.00" waitingCount="0" stopTime="10.00" timeLoss="3.78" rerouteNo="0" devices="tripinfo_flow_0.0" vType="type1" speedFactor="1.05" vaporized=""/>
    <tripinfo id="flow_3.1" depart="36.00" departLane="4to2_0" departPos="5.10" departSpeed="0.00" departDelay="0.00" arrival="50.00" arrivalLane="2to5_0" arrivalPos="92.80" arrivalSpeed="15.59" duration="14.00" routeLength="194.90" waitingTime="0.00" waitingCount="0" stopTime="0.00" timeLoss="1.46" rerouteNo="0" devices="tripinfo_flow_3.1" vType="type1" speedFactor="1.12" vaporized=""/>
    <tripinfo id="flow_0.1" depart="36.00" departLane="1to2_0" departPos="5.10" departSpeed="0.00" departDelay="0.00" arrival="56.00" arrivalLane="2to5_0" arrivalPos="92.80" arrivalSpeed="14.85" duration="20.00" routeLength="189.53" waitingTime="0.00" waitingCount="0" stopTime="2.00" timeLoss="3.91" rerouteNo="0" devices="tripinfo_flow_0.1" vType="type1" speedFactor="1.07" vaporized=""/>
    <tripinfo id="flow_2.1" depart="36.00" departLane="3to2_0" departPos="5.10" departSpeed="0.00" departDelay="0.00" arrival="56.00" arrivalLane="2to4_0" arrivalPos="92.80" arrivalSpeed="14.48" duration="20.00" routeLength="189.53" waitingTime="0.00" waitingCount="0" stopTime="2.00" timeLoss="3.73" rerouteNo="0" devices="tripinfo_flow_2.1" vType="type1" speedFactor="1.04" vaporized=""/>
    <tripinfo id="flow_1.1" depart="36.00" departLane="5to2_0" departPos="5.10" departSpeed="0.00" departDelay="0.00" arrival="57.00" arrivalLane="2to3_0" arrivalPos="92.80" arrivalSpeed="12.05" duration="21.00" routeLength="189.53" waitingTime="0.00" waitingCount="0" stopTime="1.00" timeLoss="3.45" rerouteNo="0" devices="tripinfo_flow_1.1" vType="type1" speedFactor="0.87" vaporized=""/>
    <tripinfo id="flow_3.2" depart="72.00" departLane="4to2_0" departPos="5.10" departSpeed="0.00" departDelay="0.00" arrival="89.00" arrivalLane="2to3_0" arrivalPos="92.80" arrivalSpeed="14.18" duration="17.00" routeLength="194.69" waitingTime="0.00" waitingCount="0" stopTime="0.00" timeLoss="1.87" rerouteNo="0" devices="tripinfo_flow_3.2" vType="type1" speedFactor="1.02" vaporized=""/>
    <tripinfo id="flow_2.2" depart="72.00" departLane="3to2_0" departPos="5.10" departSpeed="0.00" departDelay="0.00" arrival="93.00" arrivalLane="2to5_0" arrivalPos="92.80" arrivalSpeed="14.41" duration="21.00" routeLength="194.69" waitingTime="0.00" waitingCount="0" stopTime="3.00" timeLoss="3.67" rerouteNo="0" devices="tripinfo_flow_2.2" vType="type1" speedFactor="1.04" vaporized=""/>
    <tripinfo id="flow_0.2" depart="72.00" departLane="1to2_0" departPos="5.10" departSpeed="0.00" departDelay="0.00" arrival="94.00" arrivalLane="2to4_0" arrivalPos="92.80" arrivalSpeed="13.39" duration="22.00" routeLength="194.69" waitingTime="0.00" waitingCount="0" stopTime="3.00" timeLoss="3.12" rerouteNo="0" devices="tripinfo_flow_0.2" vType="type1" speedFactor="0.96" vaporized=""/>
    <tripinfo id="flow_1.2" depart="72.00" departLane="5to2_0" departPos="5.10" departSpeed="0.00" departDelay="0.00" arrival="99.00" arrivalLane="2to1_0" arrivalPos="92.80" arrivalSpeed="11.85" duration="27.00" routeLength="194.69" waitingTime="0.00" waitingCount="0" stopTime="6.00" timeLoss="3.11" rerouteNo="0" devices="tripinfo_flow_1.2" vType="type1" speedFactor="0.85" vaporized=""/>
    <tripinfo id="flow_1.3" depart="108.00" departLane="5to2_0" departPos="5.10" departSpeed="0.00" departDelay="0.00" arrival="153.00" arrivalLane="2to4_0" arrivalPos="92.80" arrivalSpeed="16.55" duration="45.00" routeLength="194.90" waitingTime="0.00" waitingCount="0" stopTime="28.00" timeLoss="4.74" rerouteNo="0" devices="tripinfo_flow_1.3" vType="type1" speedFactor="1.19" vaporized=""/>
    <tripinfo id="flow_3.3" depart="108.00" departLane="4to2_0" departPos="5.10" departSpeed="0.00" departDelay="0.00" arrival="153.00" arrivalLane="2to5_0" arrivalPos="92.80" arrivalSpeed="14.96" duration="45.00" routeLength="194.90" waitingTime="0.00" waitingCount="0" stopTime="28.00" timeLoss="3.97" rerouteNo="0" devices="tripinfo_flow_3.3" vType="type1" speedFactor="1.08" vaporized=""/>
    <tripinfo id="flow_0.3" depart="108.00" departLane="1to2_0" departPos="5.10" departSpeed="0.00" departDelay="0.00" arrival="160.00" arrivalLane="2to4_0" arrivalPos="92.80" arrivalSpeed="12.81" duration="52.00" routeLength="194.69" waitingTime="0.00" waitingCount="0" stopTime="32.00" timeLoss="3.77" rerouteNo="0" devices="tripinfo_flow_0.3" vType="type1" speedFactor="0.92" vaporized=""/>
    <tripinfo id="flow_2.3" depart="108.00" departLane="3to2_0" departPos="5.10" departSpeed="0.00" departDelay="0.00" arrival="164.00" arrivalLane="2to1_0" arrivalPos="92.80" arrivalSpeed="13.78" duration="56.00" routeLength="194.90" waitingTime="0.00" waitingCount="0" stopTime="38.00" timeLoss="3.36" rerouteNo="0" devices="tripinfo_flow_2.3" vType="type1" speedFactor="0.99" vaporized=""/>
    <tripinfo id="flow_0.4" depart="144.00" departLane="1to2_0" departPos="5.10" departSpeed="0.00" departDelay="0.00" arrival="164.00" arrivalLane="2to5_0" arrivalPos="92.80" arrivalSpeed="15.18" duration="20.00" routeLength="189.53" waitingTime="0.00" waitingCount="0" stopTime="2.00" timeLoss="4.07" rerouteNo="0" devices="tripinfo_flow_0.4" vType="type1" speedFactor="1.09" vaporized=""/>
    <tripinfo id="flow_2.4" depart="144.00" departLane="3to2_0" departPos="5.10" departSpeed="0.00" departDelay="0.00" arrival="166.00" arrivalLane="2to1_0" arrivalPos="92.80" arrivalSpeed="13.56" duration="22.00" routeLength="194.90" waitingTime="3.00" waitingCount="1" stopTime="0.00" timeLoss="6.79" rerouteNo="0" devices="tripinfo_flow_2.4" vType="type1" speedFactor="0.98" vaporized=""/>
    <tripinfo id="flow_1.4" depart="144.00" departLane="5to2_0" departPos="5.10" departSpeed="0.00" departDelay="0.00" arrival="171.00" arrivalLane="2to4_0" arrivalPos="92.80" arrivalSpeed="12.71" duration="27.00" routeLength="194.90" waitingTime="0.00" waitingCount="0" stopTime="7.00" timeLoss="3.71" rerouteNo="0" devices="tripinfo_flow_1.4" vType="type1" speedFactor="0.91" vaporized=""/>
    <tripinfo id="flow_3.4" depart="144.00" departLane="4to2_0" departPos="5.10" departSpeed="0.00" departDelay="0.00" arrival="176.00" arrivalLane="2to3_0" arrivalPos="92.80" arrivalSpeed="11.10" duration="32.00" routeLength="194.69" waitingTime="0.00" waitingCount="0" stopTime="11.00" timeLoss="2.59" rerouteNo="0" devices="tripinfo_flow_3.4" vType="type1" speedFactor="0.80" vaporized=""/>
    <tripinfo id="flow_3.5" depart="180.00" departLane="4to2_0" departPos="5.10" departSpeed="0.00" departDelay="0.00" arrival="197.00" arrivalLane="2to3_0" arrivalPos="92.80" arrivalSpeed="15.95" duration="17.00" routeLength="194.69" waitingTime="0.00" waitingCount="0" stopTime="0.00" timeLoss="3.56" rerouteNo="0" devices="tripinfo_flow_3.5" vType="type1" speedFactor="1.15" vaporized=""/>
    <tripinfo id="flow_0.5" depart="180.00" departLane="1to2_0" departPos="5.10" departSpeed="0.00" departDelay="0.00" arrival="199.00" arrivalLane="2to5_0" arrivalPos="92.80" arrivalSpeed="12.26" duration="19.00" routeLength="189.53" waitingTime="0.00" waitingCount="0" stopTime="0.00" timeLoss="1.97" rerouteNo="0" devices="tripinfo_flow_0.5" vType="type1" speedFactor="0.88" vaporized=""/>
    <tripinfo id="flow_1.5" depart="180.00" departLane="5to2_0" departPos="5.10" departSpeed="0.00" departDelay="0.00" arrival="202.00" arrivalLane="2to3_0" arrivalPos="92.80" arrivalSpeed="13.46" duration="22.00" routeLength="189.53" waitingTime="0.00" waitingCount="0" stopTime="4.00" timeLoss="3.25" rerouteNo="0" devices="tripinfo_flow_1.5" vType="type1" speedFactor="0.97" vaporized=""/>
    <tripinfo id="flow_2.5" depart="180.00" departLane="3to2_0" departPos="5.10" departSpeed="0.00" departDelay="0.00" arrival="203.00" arrivalLane="2to1_0" arrivalPos="92.80" arrivalSpeed="12.10" duration="23.00" routeLength="194.90" waitingTime="0.00" waitingCount="0" stopTime="3.00" timeLoss="3.30" rerouteNo="0" devices="tripinfo_flow_2.5" vType="type1" speedFactor="0.87" vaporized=""/>
    <tripinfo id="flow_3.6" depart="216.00" departLane="4to2_0" departPos="5.10" departSpeed="0.00" departDelay="0.00" arrival="238.00" arrivalLane="2to3_0" arrivalPos="92.80" arrivalSpeed="12.37" duration="22.00" routeLength="194.69" waitingTime="0.00" waitingCount="0" stopTime="1.00" timeLoss="3.48" rerouteNo="0" devices="tripinfo_flow_3.6" vType="type1" speedFactor="0.89" vaporized=""/>
    <tripinfo id="flow_2.6" depart="216.00" departLane="3to2_0" departPos="5.10" departSpeed="0.00" departDelay="0.00" arrival="240.00" arrivalLane="2to1_0" arrivalPos="92.80" arrivalSpeed="15.45" duration="24.00" routeLength="194.90" waitingTime="0.00" waitingCount="0" stopTime="7.00" timeLoss="4.23" rerouteNo="0" devices="tripinfo_flow_2.6" vType="type1" speedFactor="1.11" vaporized=""/>
    <tripinfo id="flow_1.6" depart="216.00" departLane="5to2_0" departPos="5.10" departSpeed="0.00" departDelay="0.00" arrival="241.00" arrivalLane="2to3_0" arrivalPos="92.80" arrivalSpeed="13.61" duration="25.00" routeLength="189.53" waitingTime="0.00" waitingCount="0" stopTime="7.00" timeLoss="3.33" rerouteNo="0" devices="tripinfo_flow_1.6" vType="type1" speedFactor="0.98" vaporized=""/>
    <tripinfo id="flow_0.6" depart="216.00" departLane="1to2_0" departPos="5.10" departSpeed="0.00" departDelay="0.00" arrival="247.00" arrivalLane="2to4_0" arrivalPos="92.80" arrivalSpeed="12.30" duration="31.00" routeLength="194.69" waitingTime="0.00" waitingCount="0" stopTime="10.00" timeLoss="3.43" rerouteNo="0" devices="tripinfo_flow_0.6" vType="type1" speedFactor="0.89" vaporized=""/>
    <tripinfo id="flow_0.7" depart="252.00" departLane="1to2_0" departPos="5.10" departSpeed="0.00" departDelay="0.00" arrival="269.00" arrivalLane="2to5_0" arrivalPos="92.80" arrivalSpeed="14.91" duration="17.00" routeLength="189.53" waitingTime="0.00" waitingCount="0" stopTime="0.00" timeLoss="3.10" rerouteNo="0" devices="tripinfo_flow_0.7" vType="type1" speedFactor="1.07" vaporized=""/>
    <tripinfo id="flow_1.7" depart="252.00" departLane="5to2_0" departPos="5.10" departSpeed="0.00" departDelay="0.00" arrival="269.00" arrivalLane="2to3_0" arrivalPos="92.80" arrivalSpeed="14.71" duration="17.00" routeLength="189.53" waitingTime="0.00" waitingCount="0" stopTime="0.00" timeLoss="3.02" rerouteNo="0" devices="tripinfo_flow_1.7" vType="type1" speedFactor="1.06" vaporized=""/>
    <tripinfo id="flow_2.7" depart="252.00" departLane="3to2_0" departPos="5.10" departSpeed="0.00" departDelay="0.00" arrival="269.00" arrivalLane="2to1_0" arrivalPos="92.80" arrivalSpeed="13.40" duration="17.00" routeLength="194.90" waitingTime="0.00" waitingCount="0" stopTime="0.00" timeLoss="1.82" rerouteNo="0" devices="tripinfo_flow_2.7" vType="type1" speedFactor="0.96" vaporized=""/>
    <tripinfo id="flow_3.7" depart="252.00" departLane="4to2_0" departPos="5.10" departSpeed="0.00" departDelay="0.00" arrival="272.00" arrivalLane="2to3_0" arrivalPos="92.80" arrivalSpeed="15.72" duration="20.00" routeLength="194.69" waitingTime="0.00" waitingCount="0" stopTime="3.00" timeLoss="4.26" rerouteNo="0" devices="tripinfo_flow_3.7" vType="type1" speedFactor="1.13" vaporized=""/>
    <tripinfo id="flow_0.8" depart="288.00" departLane="1to2_0" departPos="5.10" departSpeed="0.00" departDelay="0.00" arrival="304.00" arrivalLane="2to3_0" arrivalPos="92.80" arrivalSpeed="15.48" duration="16.00" routeLength="194.90" waitingTime="0.00" waitingCount="0" stopTime="0.00" timeLoss="3.34" rerouteNo="0" devices="tripinfo_flow_0.8" vType="type1" speedFactor="1.11" vaporized=""/>
    <tripinfo id="flow_2.8" depart="288.00" departLane="3to2_0" departPos="5.10" departSpeed="0.00" departDelay="0.00" arrival="305.00" arrivalLane="2to4_0" arrivalPos="92.80" arrivalSpeed="15.43" duration="17.00" routeLength="189.53" waitingTime="0.00" waitingCount="0" stopTime="0.00" timeLoss="3.32" rerouteNo="0" devices="tripinfo_flow_2.8" vType="type1" speedFactor="1.11" vaporized=""/>
    <tripinfo id="flow_1.8" depart="288.00" departLane="5to2_0" departPos="5.10" departSpeed="0.00" departDelay="0.00" arrival="311.00" arrivalLane="2to4_0" arrivalPos="92.80" arrivalSpeed="14.54" duration="23.00" routeLength="194.90" waitingTime="0.00" waitingCount="0" stopTime="5.00" timeLoss="3.76" rerouteNo="0" devices="tripinfo_flow_1.8" vType="type1" speedFactor="1.05" vaporized=""/>
    <tripinfo id="flow_3.8" depart="288.00" departLane="4to2_0" departPos="5.10" departSpeed="0.00" departDelay="0.00" arrival="315.00" arrivalLane="2to1_0" arrivalPos="92.80" arrivalSpeed="14.36" duration="27.00" routeLength="189.53" waitingTime="0.00" waitingCount="0" stopTime="9.00" timeLoss="3.68" rerouteNo="0" devices="tripinfo_flow_3.8" vType="type1" speedFactor="1.03" vaporized=""/>
    <tripinfo id="flow_0.9" depart="324.00" departLane="1to2_0" departPos="5.10" departSpeed="0.00" departDelay="0.00" arrival="340.00" arrivalLane="2to5_0" arrivalPos="92.80" arrivalSpeed="15.44" duration="16.00" routeLength="189.53" waitingTime="0.00" waitingCount="0" stopTime="0.00" timeLoss="2.28" rerouteNo="0" devices="tripinfo_flow_0.9" vType="type1" speedFactor="1.11" vaporized=""/>
    <tripinfo id="flow_2.9" depart="324.00" departLane="3to2_0" departPos="5.10" departSpeed="0.00" departDelay="0.00" arrival="340.00" arrivalLane="2to1_0" arrivalPos="92.80" arrivalSpeed="13.34" duration="16.00" routeLength="194.90" waitingTime="0.00" waitingCount="0" stopTime="0.00" timeLoss="1.20" rerouteNo="0" devices="tripinfo_flow_2.9" vType="type1" speedFactor="0.96" vaporized=""/>
    <tripinfo id="flow_1.9" depart="324.00" departLane="5to2_0" departPos="5.10" departSpeed="0.00" departDelay="0.00" arrival="345.00" arrivalLane="2to3_0" arrivalPos="92.80" arrivalSpeed="12.56" duration="21.00" routeLength="189.53" waitingTime="0.00" waitingCount="0" stopTime="1.00" timeLoss="3.77" rerouteNo="0" devices="tripinfo_flow_1.9" vType="type1" speedFactor="0.90" vaporized=""/>
    <tripinfo id="flow_3.9" depart="324.00" departLane="4to2_0" departPos="5.10" departSpeed="0.00" departDelay="0.00" arrival="348.00" arrivalLane="2to5_0" arrivalPos="92.80" arrivalSpeed="13.72" duration="24.00" routeLength="194.90" waitingTime="0.00" waitingCount="0" stopTime="6.00" timeLoss="3.32" rerouteNo="0" devices="tripinfo_flow_3.9" vType="type1" speedFactor="0.99" vaporized=""/>
    <tripinfo id="flow_3.10" depart="360.00" departLane="4to2_0" departPos="5.10" departSpeed="0.00" departDelay="0.00" arrival="376.00" arrivalLane="2to5_0" arrivalPos="92.80" arrivalSpeed="13.56" duration="16.00" routeLength="194.90" waitingTime="0.00" waitingCount="0" stopTime="0.00" timeLoss="1.23" rerouteNo="0" devices="tripinfo_flow_3.10" vType="type1" speedFactor="0.98" vaporized=""/>
    <tripinfo id="flow_0.10" depart="360.00" departLane="1to2_0" departPos="5.10" departSpeed="0.00" departDelay="0.00" arrival="379.00" arrivalLane="2to3_0" arrivalPos="92.80" arrivalSpeed="16.00" duration="19.00" routeLength="194.90" waitingTime="0.00" waitingCount="0" stopTime="2.00" timeLoss="4.50" rerouteNo="0" devices="tripinfo_flow_0.10" vType="type1" speedFactor="1.15" vaporized=""/>
    <tripinfo id="flow_1.10" depart="360.00" departLane="5to2_0" departPos="5.10" departSpeed="0.00" departDelay="0.00" arrival="386.00" arrivalLane="2to1_0" arrivalPos="92.80" arrivalSpeed="11.37" duration="26.00" routeLength="194.69" waitingTime="0.00" waitingCount="0" stopTime="5.00" timeLoss="2.78" rerouteNo="0" devices="tripinfo_flow_1.10" vType="type1" speedFactor="0.82" vaporized=""/>
    <tripinfo id="flow_2.10" depart="360.00" departLane="3to2_0" departPos="5.10" departSpeed="0.00" departDelay="0.00" arrival="389.00" arrivalLane="2to5_0" arrivalPos="92.80" arrivalSpeed="15.16" duration="29.00" routeLength="194.69" waitingTime="0.00" waitingCount="0" stopTime="11.00" timeLoss="4.02" rerouteNo="0" devices="tripinfo_flow_2.10" vType="type1" speedFactor="1.09" vaporized=""/>
    <tripinfo id="flow_0.11" depart="396.00" departLane="1to2_0" departPos="5.10" departSpeed="0.00" departDelay="0.00" arrival="413.00" arrivalLane="2to3_0" arrivalPos="92.80" arrivalSpeed="12.78" duration="17.00" routeLength="194.90" waitingTime="0.00" waitingCount="0" stopTime="0.00" timeLoss="1.43" rerouteNo="0" devices="tripinfo_flow_0.11" vType="type1" speedFactor="0.92" vaporized=""/>
    <tripinfo id="flow_2.11" depart="396.00" departLane="3to2_0" departPos="5.10" departSpeed="0.00" departDelay="0.00" arrival="414.00" arrivalLane="2to4_0" arrivalPos="92.80" arrivalSpeed="13.42" duration="18.00" routeLength="189.53" waitingTime="0.00" waitingCount="0" stopTime="0.00" timeLoss="2.44" rerouteNo="0" devices="tripinfo_flow_2.11" vType="type1" speedFactor="0.97" vaporized=""/>
    <tripinfo id="flow_3.11" depart="396.00" departLane="4to2_0" departPos="5.10" departSpeed="0.00" departDelay="0.00" arrival="418.00" arrivalLane="2to1_0" arrivalPos="92.80" arrivalSpeed="12.46" duration="22.00" routeLength="189.53" waitingTime="0.00" waitingCount="0" stopTime="2.00" timeLoss="3.70" rerouteNo="0" devices="tripinfo_flow_3.11" vType="type1" speedFactor="0.90" vaporized=""/>
    <tripinfo id="flow_1.11" depart="396.00" departLane="5to2_0" departPos="5.10" departSpeed="0.00" departDelay="0.00" arrival="423.00" arrivalLane="2to3_0" arrivalPos="92.80" arrivalSpeed="13.50" duration="27.00" routeLength="189.53" waitingTime="0.00" waitingCount="0" stopTime="9.00" timeLoss="3.27" rerouteNo="0" devices="tripinfo_flow_1.11" vType="type1" speedFactor="0.97" vaporized=""/>
    <tripinfo id="flow_2.12" depart="432.00" departLane="3to2_0" departPos="5.10" departSpeed="0.00" departDelay="0.00" arrival="448.00" arrivalLane="2to1_0" arrivalPos="92.80" arrivalSpeed="13.55" duration="16.00" routeLength="194.90" waitingTime="0.00" waitingCount="0" stopTime="0.00" timeLoss="1.23" rerouteNo="0" devices="tripinfo_flow_2.12" vType="type1" speedFactor="0.98" vaporized=""/>
    <tripinfo id="flow_0.12" depart="432.00" departLane="1to2_0" departPos="5.10" departSpeed="0.00" departDelay="0.00" arrival="449.00" arrivalLane="2to5_0" arrivalPos="92.80" arrivalSpeed="14.13" duration="17.00" routeLength="189.53" waitingTime="0.00" waitingCount="0" stopTime="0.00" timeLoss="2.57" rerouteNo="0" devices="tripinfo_flow_0.12" vType="type1" speedFactor="1.02" vaporized=""/>
    <tripinfo id="flow_3.12" depart="432.00" departLane="4to2_0" departPos="5.10" departSpeed="0.00" departDelay="0.00" arrival="453.00" arrivalLane="2to5_0" arrivalPos="92.80" arrivalSpeed="13.42" duration="21.00" routeLength="194.90" waitingTime="0.00" waitingCount="0" stopTime="3.00" timeLoss="3.15" rerouteNo="0" devices="tripinfo_flow_3.12" vType="type1" speedFactor="0.97" vaporized=""/>
    <tripinfo id="flow_1.12" depart="432.00" departLane="5to2_0" departPos="5.10" departSpeed="0.00" departDelay="0.00" arrival="458.00" arrivalLane="2to1_0" arrivalPos="92.80" arrivalSpeed="13.11" duration="26.00" routeLength="194.69" waitingTime="0.00" waitingCount="0" stopTime="6.00" timeLoss="3.96" rerouteNo="0" devices="tripinfo_flow_1.12" vType="type1" speedFactor="0.94" vaporized=""/>
    <tripinfo id="flow_0.13" depart="468.00" departLane="1to2_0" departPos="5.10" departSpeed="0.00" departDelay="0.00" arrival="483.00" arrivalLane="2to3_0" arrivalPos="92.80" arrivalSpeed="14.95" duration="15.00" routeLength="194.90" waitingTime="0.00" waitingCount="0" stopTime="0.00" timeLoss="1.40" rerouteNo="0" devices="tripinfo_flow_0.13" vType="type1" speedFactor="1.08" vaporized=""/>
    <tripinfo id="flow_2.13" depart="468.00" departLane="3to2_0" departPos="5.10" departSpeed="0.00" departDelay="0.00" arrival="484.00" arrivalLane="2to4_0" arrivalPos="92.80" arrivalSpeed="15.24" duration="16.00" routeLength="189.53" waitingTime="0.00" waitingCount="0" stopTime="0.00" timeLoss="2.24" rerouteNo="0" devices="tripinfo_flow_2.13" vType="type1" speedFactor="1.10" vaporized=""/>
    <tripinfo id="flow_1.13" depart="468.00" departLane="5to2_0" departPos="5.10" departSpeed="0.00" departDelay="0.00" arrival="492.00" arrivalLane="2to4_0" arrivalPos="92.80" arrivalSpeed="11.08" duration="24.00" routeLength="194.90" waitingTime="0.00" waitingCount="0" stopTime="3.00" timeLoss="2.50" rerouteNo="0" devices="tripinfo_flow_1.13" vType="type1" speedFactor="0.80" vaporized=""/>
    <tripinfo id="flow_3.13" depart="468.00" departLane="4to2_0" departPos="5.10" departSpeed="0.00" departDelay="0.00" arrival="494.00" arrivalLane="2to5_0" arrivalPos="92.80" arrivalSpeed="14.84" duration="26.00" routeLength="194.90" waitingTime="0.00" waitingCount="0" stopTime="8.00" timeLoss="3.91" rerouteNo="0" devices="tripinfo_flow_3.13" vType="type1" speedFactor="1.07" vaporized=""/>
    <tripinfo id="flow_1.14" depart="504.00" departLane="5to2_0" departPos="5.10" departSpeed="0.00" departDelay="0.00" arrival="521.00" arrivalLane="2to4_0" arrivalPos="92.80" arrivalSpeed="13.32" duration="17.00" routeLength="194.90" waitingTime="0.00" waitingCount="0" stopTime="0.00" timeLoss="1.75" rerouteNo="0" devices="tripinfo_flow_1.14" vType="type1" speedFactor="0.96" vaporized=""/>
    <tripinfo id="flow_0.14" depart="504.00" departLane="1to2_0" departPos="5.10" departSpeed="0.00" departDelay="0.00" arrival="522.00" arrivalLane="2to5_0" arrivalPos="92.80" arrivalSpeed="13.27" duration="18.00" routeLength="189.53" waitingTime="0.00" waitingCount="0" stopTime="0.00" timeLoss="2.36" rerouteNo="0" devices="tripinfo_flow_0.14" vType="type1" speedFactor="0.96" vaporized=""/>
    <tripinfo id="flow_3.14" depart="504.00" departLane="4to2_0" departPos="5.10" departSpeed="0.00" departDelay="0.00" arrival="526.00" arrivalLane="2to5_0" arrivalPos="92.80" arrivalSpeed="12.17" duration="22.00" routeLength="194.90" waitingTime="0.00" waitingCount="0" stopTime="2.00" timeLoss="3.35" rerouteNo="0" devices="tripinfo_flow_3.14" vType="type1" speedFactor="0.88" vaporized=""/>
    <tripinfo id="flow_2.14" depart="504.00" departLane="3to2_0" departPos="5.10" departSpeed="0.00" departDelay="0.00" arrival="530.00" arrivalLane="2to5_0" arrivalPos="92.80" arrivalSpeed="13.24" duration="26.00" routeLength="194.69" waitingTime="0.00" waitingCount="0" stopTime="7.00" timeLoss="3.03" rerouteNo="0" devices="tripinfo_flow_2.14" vType="type1" speedFactor="0.95" vaporized=""/>
    <tripinfo id="flow_3.15" depart="540.00" departLane="4to2_0" departPos="5.10" departSpeed="0.00" departDelay="0.00" arrival="557.00" arrivalLane="2to3_0" arrivalPos="92.80" arrivalSpeed="13.76" duration="17.00" routeLength="194.69" waitingTime="0.00" waitingCount="0" stopTime="0.00" timeLoss="2.19" rerouteNo="0" devices="tripinfo_flow_3.15" vType="type1" speedFactor="0.99" vaporized=""/>
    <tripinfo id="flow_2.15" depart="540.00" departLane="3to2_0" departPos="5.10" departSpeed="0.00" departDelay="0.00" arrival="561.00" arrivalLane="2to5_0" arrivalPos="92.80" arrivalSpeed="13.99" duration="21.00" routeLength="194.69" waitingTime="0.00" waitingCount="0" stopTime="3.00" timeLoss="3.45" rerouteNo="0" devices="tripinfo_flow_2.15" vType="type1" speedFactor="1.01" vaporized=""/>
    <tripinfo id="flow_1.15" depart="540.00" departLane="5to2_0" departPos="5.10" departSpeed="0.00" departDelay="0.00" arrival="562.00" arrivalLane="2to3_0" arrivalPos="92.80" arrivalSpeed="12.10" duration="22.00" routeLength="189.53" waitingTime="0.00" waitingCount="0" stopTime="2.00" timeLoss="3.48" rerouteNo="0" devices="tripinfo_flow_1.15" vType="type1" speedFactor="0.87" vaporized=""/>
    <tripinfo id="flow_0.15" depart="540.00" departLane="1to2_0" departPos="5.10" departSpeed="0.00" departDelay="0.00" arrival="566.00" arrivalLane="2to3_0" arrivalPos="92.80" arrivalSpeed="11.57" duration="26.00" routeLength="194.90" waitingTime="0.00" waitingCount="0" stopTime="6.00" timeLoss="2.90" rerouteNo="0" devices="tripinfo_flow_0.15" vType="type1" speedFactor="0.83" vaporized=""/>
    <tripinfo id="flow_3.16" depart="576.00" departLane="4to2_0" departPos="5.10" departSpeed="0.00" departDelay="0.00" arrival="595.00" arrivalLane="2to3_0" arrivalPos="92.80" arrivalSpeed="12.31" duration="19.00" routeLength="194.69" waitingTime="0.00" waitingCount="0" stopTime="0.00" timeLoss="1.57" rerouteNo="0" devices="tripinfo_flow_3.16" vType="type1" speedFactor="0.89" vaporized=""/>
    <tripinfo id="flow_1.16" depart="576.00" departLane="5to2_0" departPos="5.10" departSpeed="0.00" departDelay="0.00" arrival="597.00" arrivalLane="2to3_0" arrivalPos="92.80" arrivalSpeed="16.19" duration="21.00" routeLength="189.53" waitingTime="0.00" waitingCount="0" stopTime="4.00" timeLoss="4.54" rerouteNo="0" devices="tripinfo_flow_1.16" vType="type1" speedFactor="1.17" vaporized=""/>
    <tripinfo id="flow_2.16" depart="576.00" departLane="3to2_0" departPos="5.10" departSpeed="0.00" departDelay="0.00" arrival="598.00" arrivalLane="2to5_0" arrivalPos="92.80" arrivalSpeed="14.41" duration="22.00" routeLength="194.69" waitingTime="0.00" waitingCount="0" stopTime="4.00" timeLoss="3.67" rerouteNo="0" devices="tripinfo_flow_2.16" vType="type1" speedFactor="1.04" vaporized=""/>
    <tripinfo id="flow_0.16" depart="576.00" departLane="1to2_0" departPos="5.10" departSpeed="0.00" departDelay="0.00" arrival="603.00" arrivalLane="2to3_0" arrivalPos="92.80" arrivalSpeed="15.05" duration="27.00" routeLength="194.90" waitingTime="0.00" waitingCount="0" stopTime="10.00" timeLoss="4.02" rerouteNo="0" devices="tripinfo_flow_0.16" vType="type1" speedFactor="1.08" vaporized=""/>
    <tripinfo id="flow_1.17" depart="612.00" departLane="5to2_0" departPos="5.10" departSpeed="0.00" departDelay="0.00" arrival="631.00" arrivalLane="2to3_0" arrivalPos="92.80" arrivalSpeed="12.25" duration="19.00" routeLength="189.53" waitingTime="0.00" waitingCount="0" stopTime="0.00" timeLoss="1.97" rerouteNo="0" devices="tripinfo_flow_1.17" vType="type1" speedFactor="0.88" vaporized=""/>
    <tripinfo id="flow_0.17" depart="612.00" departLane="1to2_0" departPos="5.10" departSpeed="0.00" departDelay="0.00" arrival="634.00" arrivalLane="2to4_0" arrivalPos="92.80" arrivalSpeed="13.46" duration="22.00" routeLength="194.69" waitingTime="0.00" waitingCount="0" stopTime="4.00" timeLoss="3.16" rerouteNo="0" devices="tripinfo_flow_0.17" vType="type1" speedFactor="0.97" vaporized=""/>
    <tripinfo id="flow_3.17" depart="612.00" departLane="4to2_0" departPos="5.10" departSpeed="0.00" departDelay="0.00" arrival="636.00" arrivalLane="2to1_0" arrivalPos="92.80" arrivalSpeed="10.85" duration="24.00" routeLength="189.53" waitingTime="0.00" waitingCount="0" stopTime="3.00" timeLoss="2.61" rerouteNo="0" devices="tripinfo_flow_3.17" vType="type1" speedFactor="0.78" vaporized=""/>
    <tripinfo id="flow_3.18" depart="648.00" departLane="4to2_0" departPos="5.10" departSpeed="0.00" departDelay="0.00" arrival="664.00" arrivalLane="2to1_0" arrivalPos="92.80" arrivalSpeed="14.83" duration="16.00" routeLength="189.53" waitingTime="0.00" waitingCount="0" stopTime="0.00" timeLoss="2.17" rerouteNo="0" devices="tripinfo_flow_3.18" vType="type1" speedFactor="1.07" vaporized=""/>
    <tripinfo id="flow_1.18" depart="648.00" departLane="5to2_0" departPos="5.10" departSpeed="0.00" departDelay="0.00" arrival="669.00" arrivalLane="2to1_0" arrivalPos="92.80" arrivalSpeed="12.54" duration="21.00" routeLength="194.69" waitingTime="0.00" waitingCount="0" stopTime="1.00" timeLoss="3.60" rerouteNo="0" devices="tripinfo_flow_1.18" vType="type1" speedFactor="0.90" vaporized=""/>