<?xml version="1.0" encoding="UTF-8"?>

<!-- generated on 2022-02-18 16:36:56 by Eclipse SUMO sumo Version 1.10.0
<configuration xmlns:xsi="http://www.w3.org/2001/XMLSchema-instance" xsi:noNamespaceSchemaLocation="http://sumo.dlr.de/xsd/sumoConfiguration.xsd">

    <input>
        <net-file value="resources/Net/NetworkCrossNotraficLight.net.xml"/>
        <route-files value="resources/Net/NetworkNoTraf.rou.xml"/>
        <additional-files value="resources/Net/calibrator.xml"/>
    </input>

    <output>
        <tripinfo-output value="resources/tripinfo.xml"/>
    </output>

    <time>
        <step-length value="1"/>
    </time>

    <processing>
        <collision.action value="warn"/>
        <collision.check-junctions value="true"/>
        <collision.check-junctions.mingap value="0"/>
        <time-to-teleport value="-1"/>
    </processing>

    <traci_server>
        <remote-port value="56709"/>
    </traci_server>

    <random_number>
        <random value="true"/>
    </random_number>

    <gui_only>
        <tracker-interval value="1"/>
    </gui_only>

</configuration>
-->

<tripinfos xmlns:xsi="http://www.w3.org/2001/XMLSchema-instance" xsi:noNamespaceSchemaLocation="http://sumo.dlr.de/xsd/tripinfo_file.xsd">
</tripinfos>
