<?xml version="1.0" encoding="UTF-8"?>

<!-- generated on 2021-09-08 17:07:15 by Eclipse SUMO GUI Version 1.10.0
<configuration xmlns:xsi="http://www.w3.org/2001/XMLSchema-instance" xsi:noNamespaceSchemaLocation="http://sumo.dlr.de/xsd/sumoConfiguration.xsd">

    <input>
        <net-file value="C:\Users\CIAD\Documents\SumoTest\NetworkCrossNoTraficLight\NetworkCrossNotraficLight.net.xml"/>
        <route-files value="C:\Users\CIAD\Documents\SumoTest\NetworkCrossNoTraficLight\NetworkCrossNoTrafficLight.rou.xml"/>
    </input>

    <output>
        <tripinfo-output value="tripinfo.xml"/>
    </output>

    <traci_server>
        <remote-port value="51715"/>
    </traci_server>

</configuration>
-->

<tripinfos xmlns:xsi="http://www.w3.org/2001/XMLSchema-instance" xsi:noNamespaceSchemaLocation="http://sumo.dlr.de/xsd/tripinfo_file.xsd">
    <tripinfo id="flow_0.0" depart="0.00" departLane="1to2_0" departPos="5.10" departSpeed="0.00" departDelay="0.00" arrival="20.00" arrivalLane="2to5_0" arrivalPos="92.80" arrivalSpeed="13.61" duration="20.00" routeLength="189.53" waitingTime="0.00" waitingCount="0" stopTime="0.00" timeLoss="6.24" rerouteNo="1" devices="tripinfo_flow_0.0" vType="DEFAULT_VEHTYPE" speedFactor="1.06" vaporized=""/>
    <tripinfo id="flow_2.0" depart="0.00" departLane="3to2_0" departPos="5.10" departSpeed="0.00" departDelay="0.00" arrival="21.00" arrivalLane="2to1_0" arrivalPos="92.80" arrivalSpeed="13.50" duration="21.00" routeLength="194.90" waitingTime="0.00" waitingCount="0" stopTime="0.00" timeLoss="6.65" rerouteNo="1" devices="tripinfo_flow_2.0" vType="DEFAULT_VEHTYPE" speedFactor="1.01" vaporized=""/>
    <tripinfo id="flow_0.1" depart="6.00" departLane="1to2_0" departPos="5.10" departSpeed="0.00" departDelay="0.00" arrival="25.00" arrivalLane="2to3_0" arrivalPos="92.80" arrivalSpeed="14.01" duration="19.00" routeLength="194.90" waitingTime="0.00" waitingCount="0" stopTime="0.00" timeLoss="5.28" rerouteNo="1" devices="tripinfo_flow_0.1" vType="DEFAULT_VEHTYPE" speedFactor="1.03" vaporized=""/>
    <tripinfo id="flow_2.1" depart="6.00" departLane="3to2_0" departPos="5.10" departSpeed="0.00" departDelay="0.00" arrival="26.00" arrivalLane="2to4_0" arrivalPos="92.80" arrivalSpeed="13.93" duration="20.00" routeLength="189.53" waitingTime="0.00" waitingCount="0" stopTime="0.00" timeLoss="5.95" rerouteNo="1" devices="tripinfo_flow_2.1" vType="DEFAULT_VEHTYPE" speedFactor="1.05" vaporized=""/>
    <tripinfo id="flow_3.0" depart="0.00" departLane="4to2_0" departPos="5.10" departSpeed="0.00" departDelay="0.00" arrival="32.00" arrivalLane="2to5_0" arrivalPos="92.80" arrivalSpeed="13.90" duration="32.00" routeLength="194.90" waitingTime="0.00" waitingCount="0" stopTime="10.00" timeLoss="8.44" rerouteNo="1" devices="tripinfo_flow_3.0" vType="DEFAULT_VEHTYPE" speedFactor="1.08" vaporized=""/>
    <tripinfo id="flow_2.2" depart="12.00" departLane="3to2_0" departPos="5.10" departSpeed="0.00" departDelay="0.00" arrival="32.00" arrivalLane="2to4_0" arrivalPos="92.80" arrivalSpeed="14.74" duration="20.00" routeLength="189.53" waitingTime="0.00" waitingCount="0" stopTime="0.00" timeLoss="6.18" rerouteNo="1" devices="tripinfo_flow_2.2" vType="DEFAULT_VEHTYPE" speedFactor="1.09" vaporized=""/>
    <tripinfo id="flow_1.0" depart="0.00" departLane="5to2_0" departPos="5.10" departSpeed="0.00" departDelay="0.00" arrival="36.00" arrivalLane="2to3_0" arrivalPos="92.80" arrivalSpeed="12.34" duration="36.00" routeLength="189.53" waitingTime="0.00" waitingCount="0" stopTime="10.00" timeLoss="9.67" rerouteNo="1" devices="tripinfo_flow_1.0" vType="DEFAULT_VEHTYPE" speedFactor="0.94" vaporized=""/>
    <tripinfo id="flow_2.3" depart="18.00" departLane="3to2_0" departPos="5.10" departSpeed="0.00" departDelay="0.00" arrival="39.00" arrivalLane="2to4_0" arrivalPos="92.80" arrivalSpeed="12.59" duration="21.00" routeLength="189.53" waitingTime="0.00" waitingCount="0" stopTime="0.00" timeLoss="5.91" rerouteNo="1" devices="tripinfo_flow_2.3" vType="DEFAULT_VEHTYPE" speedFactor="0.99" vaporized=""/>
    <tripinfo id="flow_2.4" depart="24.00" departLane="3to2_0" departPos="5.10" departSpeed="0.00" departDelay="0.00" arrival="44.00" arrivalLane="2to1_0" arrivalPos="92.80" arrivalSpeed="12.89" duration="20.00" routeLength="194.90" waitingTime="0.00" waitingCount="0" stopTime="0.00" timeLoss="4.22" rerouteNo="1" devices="tripinfo_flow_2.4" vType="DEFAULT_VEHTYPE" speedFactor="0.94" vaporized=""/>
    <tripinfo id="flow_0.2" depart="12.00" departLane="1to2_0" departPos="5.10" departSpeed="0.00" departDelay="0.00" arrival="47.00" arrivalLane="2to4_0" arrivalPos="92.80" arrivalSpeed="12.26" duration="35.00" routeLength="194.69" waitingTime="10.00" waitingCount="1" stopTime="0.00" timeLoss="19.03" rerouteNo="1" devices="tripinfo_flow_0.2" vType="DEFAULT_VEHTYPE" speedFactor="0.94" vaporized=""/>
    <tripinfo id="flow_1.1" depart="6.00" departLane="5to2_0" departPos="5.10" departSpeed="0.00" departDelay="0.00" arrival="51.00" arrivalLane="2to4_0" arrivalPos="92.80" arrivalSpeed="10.43" duration="45.00" routeLength="194.90" waitingTime="6.00" waitingCount="2" stopTime="10.00" timeLoss="17.62" rerouteNo="1" devices="tripinfo_flow_1.1" vType="DEFAULT_VEHTYPE" speedFactor="0.83" vaporized=""/>
    <tripinfo id="flow_3.1" depart="6.00" departLane="4to2_0" departPos="5.10" departSpeed="0.00" departDelay="0.00" arrival="54.00" arrivalLane="2to3_0" arrivalPos="92.80" arrivalSpeed="11.82" duration="48.00" routeLength="194.69" waitingTime="5.00" waitingCount="1" stopTime="10.00" timeLoss="20.42" rerouteNo="1" devices="tripinfo_flow_3.1" vType="DEFAULT_VEHTYPE" speedFactor="0.89" vaporized=""/>
    <tripinfo id="flow_2.5" depart="30.00" departLane="3to2_0" departPos="5.10" departSpeed="0.00" departDelay="0.00" arrival="56.00" arrivalLane="2to5_0" arrivalPos="92.80" arrivalSpeed="13.53" duration="26.00" routeLength="194.69" waitingTime="1.00" waitingCount="1" stopTime="0.00" timeLoss="10.30" rerouteNo="1" devices="tripinfo_flow_2.5" vType="DEFAULT_VEHTYPE" speedFactor="0.98" vaporized=""/>
    <tripinfo id="flow_2.6" depart="36.00" departLane="3to2_0" departPos="5.10" departSpeed="0.00" departDelay="0.00" arrival="58.00" arrivalLane="2to1_0" arrivalPos="92.80" arrivalSpeed="11.46" duration="22.00" routeLength="194.90" waitingTime="0.00" waitingCount="0" stopTime="0.00" timeLoss="5.96" rerouteNo="1" devices="tripinfo_flow_2.6" vType="DEFAULT_VEHTYPE" speedFactor="0.92" vaporized=""/>
    <tripinfo id="flow_2.7" depart="42.00" departLane="3to2_0" departPos="5.10" departSpeed="0.00" departDelay="0.00" arrival="61.00" arrivalLane="2to1_0" arrivalPos="92.80" arrivalSpeed="15.21" duration="19.00" routeLength="194.90" waitingTime="0.00" waitingCount="0" stopTime="0.00" timeLoss="6.26" rerouteNo="1" devices="tripinfo_flow_2.7" vType="DEFAULT_VEHTYPE" speedFactor="1.18" vaporized=""/>
    <tripinfo id="flow_3.2" depart="12.00" departLane="4to2_0" departPos="5.10" departSpeed="0.00" departDelay="0.00" arrival="65.00" arrivalLane="2to1_0" arrivalPos="92.80" arrivalSpeed="13.81" duration="53.00" routeLength="189.53" waitingTime="11.00" waitingCount="2" stopTime="10.00" timeLoss="28.38" rerouteNo="1" devices="tripinfo_flow_3.2" vType="DEFAULT_VEHTYPE" speedFactor="1.03" vaporized=""/>
    <tripinfo id="flow_0.3" depart="18.00" departLane="1to2_0" departPos="5.10" departSpeed="0.00" departDelay="0.00" arrival="65.00" arrivalLane="2to4_0" arrivalPos="92.80" arrivalSpeed="13.56" duration="47.00" routeLength="194.69" waitingTime="21.00" waitingCount="2" stopTime="0.00" timeLoss="32.84" rerouteNo="1" devices="tripinfo_flow_0.3" vType="DEFAULT_VEHTYPE" speedFactor="1.05" vaporized=""/>
    <tripinfo id="flow_1.2" depart="12.00" departLane="5to2_0" departPos="5.10" departSpeed="0.00" departDelay="0.00" arrival="69.00" arrivalLane="2to4_0" arrivalPos="92.80" arrivalSpeed="11.30" duration="57.00" routeLength="194.90" waitingTime="12.00" waitingCount="4" stopTime="10.00" timeLoss="30.27" rerouteNo="1" devices="tripinfo_flow_1.2" vType="DEFAULT_VEHTYPE" speedFactor="0.86" vaporized=""/>
    <tripinfo id="flow_0.4" depart="24.00" departLane="1to2_0" departPos="5.10" departSpeed="0.00" departDelay="0.00" arrival="69.00" arrivalLane="2to5_0" arrivalPos="92.80" arrivalSpeed="11.13" duration="45.00" routeLength="189.53" waitingTime="14.00" waitingCount="2" stopTime="0.00" timeLoss="28.20" rerouteNo="1" devices="tripinfo_flow_0.4" vType="DEFAULT_VEHTYPE" speedFactor="0.88" vaporized=""/>
    <tripinfo id="flow_0.5" depart="30.00" departLane="1to2_0" departPos="5.10" departSpeed="0.00" departDelay="0.00" arrival="71.00" arrivalLane="2to5_0" arrivalPos="92.80" arrivalSpeed="13.66" duration="41.00" routeLength="189.53" waitingTime="11.00" waitingCount="1" stopTime="0.00" timeLoss="26.13" rerouteNo="1" devices="tripinfo_flow_0.5" vType="DEFAULT_VEHTYPE" speedFactor="1.02" vaporized=""/>
    <tripinfo id="flow_2.8" depart="48.00" departLane="3to2_0" departPos="5.10" departSpeed="0.00" departDelay="0.00" arrival="72.00" arrivalLane="2to4_0" arrivalPos="92.80" arrivalSpeed="13.77" duration="24.00" routeLength="189.53" waitingTime="1.00" waitingCount="1" stopTime="0.00" timeLoss="9.51" rerouteNo="1" devices="tripinfo_flow_2.8" vType="DEFAULT_VEHTYPE" speedFactor="0.99" vaporized=""/>
    <tripinfo id="flow_2.9" depart="54.00" departLane="3to2_0" departPos="5.10" departSpeed="0.00" departDelay="0.00" arrival="75.00" arrivalLane="2to4_0" arrivalPos="92.80" arrivalSpeed="14.47" duration="21.00" routeLength="189.53" waitingTime="0.00" waitingCount="0" stopTime="0.00" timeLoss="7.48" rerouteNo="1" devices="tripinfo_flow_2.9" vType="DEFAULT_VEHTYPE" speedFactor="1.10" vaporized=""/>
    <tripinfo id="flow_3.3" depart="18.00" departLane="4to2_0" departPos="5.10" departSpeed="0.00" departDelay="0.00" arrival="81.00" arrivalLane="2to1_0" arrivalPos="92.80" arrivalSpeed="12.31" duration="63.00" routeLength="189.53" waitingTime="16.00" waitingCount="2" stopTime="10.00" timeLoss="37.17" rerouteNo="1" devices="tripinfo_flow_3.3" vType="DEFAULT_VEHTYPE" speedFactor="0.93" vaporized=""/>
    <tripinfo id="flow_2.10" depart="60.00" departLane="3to2_0" departPos="5.10" departSpeed="0.00" departDelay="0.00" arrival="83.00" arrivalLane="2to1_0" arrivalPos="92.80" arrivalSpeed="14.43" duration="23.00" routeLength="194.90" waitingTime="0.00" waitingCount="0" stopTime="0.00" timeLoss="9.71" rerouteNo="1" devices="tripinfo_flow_2.10" vType="DEFAULT_VEHTYPE" speedFactor="1.09" vaporized=""/>
    <tripinfo id="flow_1.3" depart="18.00" departLane="5to2_0" departPos="5.10" departSpeed="0.00" departDelay="0.00" arrival="87.00" arrivalLane="2to1_0" arrivalPos="92.80" arrivalSpeed="14.31" duration="69.00" routeLength="194.69" waitingTime="19.00" waitingCount="3" stopTime="10.00" timeLoss="45.26" rerouteNo="1" devices="tripinfo_flow_1.3" vType="DEFAULT_VEHTYPE" speedFactor="1.12" vaporized=""/>
    <tripinfo id="flow_2.11" depart="66.00" departLane="3to2_0" departPos="5.10" departSpeed="0.00" departDelay="0.00" arrival="90.00" arrivalLane="2to5_0" arrivalPos="92.80" arrivalSpeed="12.57" duration="24.00" routeLength="194.69" waitingTime="0.00" waitingCount="0" stopTime="0.00" timeLoss="8.51" rerouteNo="1" devices="tripinfo_flow_2.11" vType="DEFAULT_VEHTYPE" speedFactor="1.00" vaporized=""/>
    <tripinfo id="flow_2.12" depart="72.00" departLane="3to2_0" departPos="5.10" departSpeed="0.00" departDelay="0.00" arrival="95.00" arrivalLane="2to4_0" arrivalPos="92.80" arrivalSpeed="11.32" duration="23.00" routeLength="189.53" waitingTime="0.00" waitingCount="0" stopTime="0.00" timeLoss="5.70" rerouteNo="1" devices="tripinfo_flow_2.12" vType="DEFAULT_VEHTYPE" speedFactor="0.85" vaporized=""/>
    <tripinfo id="flow_0.6" depart="36.00" departLane="1to2_0" departPos="5.10" departSpeed="0.00" departDelay="0.00" arrival="98.00" arrivalLane="2to4_0" arrivalPos="92.80" arrivalSpeed="10.46" duration="62.00" routeLength="194.69" waitingTime="29.00" waitingCount="2" stopTime="0.00" timeLoss="43.75" rerouteNo="1" devices="tripinfo_flow_0.6" vType="DEFAULT_VEHTYPE" speedFactor="0.83" vaporized=""/>
    <tripinfo id="flow_3.4" depart="24.00" departLane="4to2_0" departPos="5.10" departSpeed="0.00" departDelay="0.00" arrival="99.00" arrivalLane="2to5_0" arrivalPos="92.80" arrivalSpeed="15.09" duration="75.00" routeLength="194.90" waitingTime="23.00" waitingCount="4" stopTime="10.00" timeLoss="52.09" rerouteNo="1" devices="tripinfo_flow_3.4" vType="DEFAULT_VEHTYPE" speedFactor="1.16" vaporized=""/>
    <tripinfo id="flow_1.4" depart="24.00" departLane="5to2_0" departPos="5.10" departSpeed="0.00" departDelay="0.00" arrival="100.00" arrivalLane="2to4_0" arrivalPos="92.80" arrivalSpeed="11.92" duration="76.00" routeLength="194.90" waitingTime="25.00" waitingCount="4" stopTime="10.00" timeLoss="50.49" rerouteNo="1" devices="tripinfo_flow_1.4" vType="DEFAULT_VEHTYPE" speedFactor="0.94" vaporized=""/>
    <tripinfo id="flow_0.7" depart="42.00" departLane="1to2_0" departPos="5.10" departSpeed="0.00" departDelay="0.00" arrival="102.00" arrivalLane="2to5_0" arrivalPos="92.80" arrivalSpeed="15.34" duration="60.00" routeLength="189.53" waitingTime="26.00" waitingCount="3" stopTime="0.00" timeLoss="46.87" rerouteNo="1" devices="tripinfo_flow_0.7" vType="DEFAULT_VEHTYPE" speedFactor="1.13" vaporized=""/>
    <tripinfo id="flow_0.8" depart="48.00" departLane="1to2_0" departPos="5.10" departSpeed="0.00" departDelay="0.00" arrival="105.00" arrivalLane="2to3_0" arrivalPos="92.80" arrivalSpeed="13.83" duration="57.00" routeLength="194.90" waitingTime="20.00" waitingCount="2" stopTime="0.00" timeLoss="42.36" rerouteNo="1" devices="tripinfo_flow_0.8" vType="DEFAULT_VEHTYPE" speedFactor="1.01" vaporized=""/>
    <tripinfo id="flow_0.9" depart="54.00" departLane="1to2_0" departPos="5.10" departSpeed="0.00" departDelay="0.00" arrival="107.00" arrivalLane="2to4_0" arrivalPos="92.80" arrivalSpeed="13.44" duration="53.00" routeLength="194.69" waitingTime="18.00" waitingCount="1" stopTime="0.00" timeLoss="37.81" rerouteNo="1" devices="tripinfo_flow_0.9" vType="DEFAULT_VEHTYPE" speedFactor="0.97" vaporized=""/>
    <tripinfo id="flow_0.10" depart="60.00" departLane="1to2_0" departPos="5.10" departSpeed="0.00" departDelay="0.00" arrival="109.00" arrivalLane="2to3_0" arrivalPos="92.80" arrivalSpeed="13.12" duration="49.00" routeLength="194.90" waitingTime="18.00" waitingCount="1" stopTime="0.00" timeLoss="34.81" rerouteNo="1" devices="tripinfo_flow_0.10" vType="DEFAULT_VEHTYPE" speedFactor="1.03" vaporized=""/>
    <tripinfo id="flow_2.13" depart="78.00" departLane="3to2_0" departPos="5.10" departSpeed="0.00" departDelay="0.00" arrival="111.00" arrivalLane="2to5_0" arrivalPos="92.80" arrivalSpeed="13.75" duration="33.00" routeLength="194.69" waitingTime="10.00" waitingCount="1" stopTime="0.00" timeLoss="18.24" rerouteNo="1" devices="tripinfo_flow_2.13" vType="DEFAULT_VEHTYPE" speedFactor="1.00" vaporized=""/>
    <tripinfo id="flow_3.5" depart="30.00" departLane="4to2_0" departPos="5.10" departSpeed="0.00" departDelay="0.00" arrival="113.00" arrivalLane="2to1_0" arrivalPos="92.80" arrivalSpeed="12.13" duration="83.00" routeLength="189.53" waitingTime="27.00" waitingCount="3" stopTime="10.00" timeLoss="56.88" rerouteNo="1" devices="tripinfo_flow_3.5" vType="DEFAULT_VEHTYPE" speedFactor="0.89" vaporized=""/>
    <tripinfo id="flow_2.14" depart="84.00" departLane="3to2_0" departPos="5.10" departSpeed="0.00" departDelay="0.00" arrival="114.00" arrivalLane="2to4_0" arrivalPos="92.80" arrivalSpeed="13.76" duration="30.00" routeLength="189.53" waitingTime="5.00" waitingCount="1" stopTime="0.00" timeLoss="15.42" rerouteNo="1" devices="tripinfo_flow_2.14" vType="DEFAULT_VEHTYPE" speedFactor="1.02" vaporized=""/>
    <tripinfo id="flow_1.5" depart="30.00" departLane="5to2_0" departPos="5.10" departSpeed="0.00" departDelay="0.00" arrival="115.00" arrivalLane="2to3_0" arrivalPos="92.80" arrivalSpeed="12.81" duration="85.00" routeLength="189.53" waitingTime="31.00" waitingCount="4" stopTime="10.00" timeLoss="59.95" rerouteNo="1" devices="tripinfo_flow_1.5" vType="DEFAULT_VEHTYPE" speedFactor="1.01" vaporized=""/>
    <tripinfo id="flow_0.11" depart="66.00" departLane="1to2_0" departPos="5.10" departSpeed="0.00" departDelay="0.00" arrival="116.00" arrivalLane="2to4_0" arrivalPos="92.80" arrivalSpeed="14.10" duration="50.00" routeLength="194.69" waitingTime="15.00" waitingCount="2" stopTime="0.00" timeLoss="35.33" rerouteNo="1" devices="tripinfo_flow_0.11" vType="DEFAULT_VEHTYPE" speedFactor="1.04" vaporized=""/>
    <tripinfo id="flow_2.15" depart="90.00" departLane="3to2_0" departPos="5.10" departSpeed="0.00" departDelay="0.00" arrival="117.00" arrivalLane="2to5_0" arrivalPos="92.80" arrivalSpeed="14.01" duration="27.00" routeLength="194.69" waitingTime="1.00" waitingCount="1" stopTime="0.00" timeLoss="11.77" rerouteNo="1" devices="tripinfo_flow_2.15" vType="DEFAULT_VEHTYPE" speedFactor="1.02" vaporized=""/>
    <tripinfo id="flow_2.16" depart="96.00" departLane="3to2_0" departPos="5.10" departSpeed="0.00" departDelay="0.00" arrival="120.00" arrivalLane="2to5_0" arrivalPos="92.80" arrivalSpeed="11.58" duration="24.00" routeLength="194.69" waitingTime="0.00" waitingCount="0" stopTime="0.00" timeLoss="7.66" rerouteNo="1" devices="tripinfo_flow_2.16" vType="DEFAULT_VEHTYPE" speedFactor="0.91" vaporized=""/>
    <tripinfo id="flow_2.17" depart="102.00" departLane="3to2_0" departPos="5.10" departSpeed="0.00" departDelay="0.00" arrival="121.00" arrivalLane="2to1_0" arrivalPos="92.80" arrivalSpeed="13.18" duration="19.00" routeLength="194.90" waitingTime="0.00" waitingCount="0" stopTime="0.00" timeLoss="4.93" rerouteNo="1" devices="tripinfo_flow_2.17" vType="DEFAULT_VEHTYPE" speedFactor="1.02" vaporized=""/>
    <tripinfo id="flow_3.6" depart="36.00" departLane="4to2_0" departPos="5.10" departSpeed="0.00" departDelay="0.00" arrival="128.00" arrivalLane="2to5_0" arrivalPos="92.80" arrivalSpeed="12.13" duration="92.00" routeLength="194.90" waitingTime="33.00" waitingCount="5" stopTime="10.00" timeLoss="67.15" rerouteNo="1" devices="tripinfo_flow_3.6" vType="DEFAULT_VEHTYPE" speedFactor="0.95" vaporized=""/>
    <tripinfo id="flow_2.18" depart="108.00" departLane="3to2_0" departPos="5.10" departSpeed="0.00" departDelay="0.00" arrival="129.00" arrivalLane="2to4_0" arrivalPos="92.80" arrivalSpeed="12.37" duration="21.00" routeLength="189.53" waitingTime="0.00" waitingCount="0" stopTime="0.00" timeLoss="5.45" rerouteNo="1" devices="tripinfo_flow_2.18" vType="DEFAULT_VEHTYPE" speedFactor="0.96" vaporized=""/>
    <tripinfo id="flow_1.6" depart="36.00" departLane="5to2_0" departPos="5.10" departSpeed="0.00" departDelay="0.00" arrival="130.00" arrivalLane="2to3_0" arrivalPos="92.80" arrivalSpeed="11.60" duration="94.00" routeLength="189.53" waitingTime="36.00" waitingCount="4" stopTime="10.00" timeLoss="66.62" rerouteNo="1" devices="tripinfo_flow_1.6" vType="DEFAULT_VEHTYPE" speedFactor="0.87" vaporized=""/>
    <tripinfo id="flow_0.12" depart="72.00" departLane="1to2_0" departPos="5.10" departSpeed="0.00" departDelay="0.00" arrival="132.00" arrivalLane="2to4_0" arrivalPos="92.80" arrivalSpeed="11.81" duration="60.00" routeLength="194.69" waitingTime="19.00" waitingCount="3" stopTime="0.00" timeLoss="42.66" rerouteNo="1" devices="tripinfo_flow_0.12" vType="DEFAULT_VEHTYPE" speedFactor="0.88" vaporized=""/>
    <tripinfo id="flow_0.13" depart="78.00" departLane="1to2_0" departPos="5.10" departSpeed="0.00" departDelay="0.00" arrival="134.00" arrivalLane="2to4_0" arrivalPos="92.80" arrivalSpeed="13.95" duration="56.00" routeLength="194.69" waitingTime="14.00" waitingCount="2" stopTime="0.00" timeLoss="40.38" rerouteNo="1" devices="tripinfo_flow_0.13" vType="DEFAULT_VEHTYPE" speedFactor="1.02" vaporized=""/>
    <tripinfo id="flow_0.14" depart="84.00" departLane="1to2_0" departPos="5.10" departSpeed="0.00" departDelay="0.00" arrival="135.00" arrivalLane="2to3_0" arrivalPos="92.80" arrivalSpeed="12.17" duration="51.00" routeLength="194.90" waitingTime="10.00" waitingCount="2" stopTime="0.00" timeLoss="35.18" rerouteNo="1" devices="tripinfo_flow_0.14" vType="DEFAULT_VEHTYPE" speedFactor="0.90" vaporized=""/>
    <tripinfo id="flow_0.15" depart="90.00" departLane="1to2_0" departPos="5.10" departSpeed="0.00" departDelay="0.00" arrival="138.00" arrivalLane="2to5_0" arrivalPos="92.80" arrivalSpeed="13.94" duration="48.00" routeLength="189.53" waitingTime="6.00" waitingCount="1" stopTime="0.00" timeLoss="34.12" rerouteNo="1" devices="tripinfo_flow_0.15" vType="DEFAULT_VEHTYPE" speedFactor="1.08" vaporized=""/>
    <tripinfo id="flow_2.19" depart="114.00" departLane="3to2_0" departPos="5.10" departSpeed="0.00" departDelay="0.00" arrival="141.00" arrivalLane="2to5_0" arrivalPos="92.80" arrivalSpeed="12.98" duration="27.00" routeLength="194.69" waitingTime="3.00" waitingCount="1" stopTime="0.00" timeLoss="11.95" rerouteNo="1" devices="tripinfo_flow_2.19" vType="DEFAULT_VEHTYPE" speedFactor="1.01" vaporized=""/>
    <tripinfo id="flow_2.20" depart="120.00" departLane="3to2_0" departPos="5.10" departSpeed="0.00" departDelay="0.00" arrival="142.00" arrivalLane="2to1_0" arrivalPos="92.80" arrivalSpeed="13.15" duration="22.00" routeLength="194.90" waitingTime="0.00" waitingCount="0" stopTime="0.00" timeLoss="8.02" rerouteNo="1" devices="tripinfo_flow_2.20" vType="DEFAULT_VEHTYPE" speedFactor="1.02" vaporized=""/>
    <tripinfo id="flow_1.7" depart="42.00" departLane="5to2_0" departPos="5.10" departSpeed="0.00" departDelay="0.00" arrival="145.00" arrivalLane="2to4_0" arrivalPos="92.80" arrivalSpeed="12.42" duration="103.00" routeLength="194.90" waitingTime="42.00" waitingCount="5" stopTime="10.00" timeLoss="77.53" rerouteNo="1" devices="tripinfo_flow_1.7" vType="DEFAULT_VEHTYPE" speedFactor="0.93" vaporized=""/>
    <tripinfo id="flow_3.7" depart="42.00" departLane="4to2_0" departPos="5.10" departSpeed="0.00" departDelay="0.00" arrival="145.00" arrivalLane="2to1_0" arrivalPos="92.80" arrivalSpeed="15.59" duration="103.00" routeLength="189.53" waitingTime="39.00" waitingCount="6" stopTime="10.00" timeLoss="80.68" rerouteNo="1" devices="tripinfo_flow_3.7" vType="DEFAULT_VEHTYPE" speedFactor="1.15" vaporized=""/>
    <tripinfo id="flow_2.21" depart="126.00" departLane="3to2_0" departPos="5.10" departSpeed="0.00" departDelay="0.00" arrival="147.00" arrivalLane="2to4_0" arrivalPos="92.80" arrivalSpeed="13.78" duration="21.00" routeLength="189.53" waitingTime="0.00" waitingCount="0" stopTime="0.00" timeLoss="6.62" rerouteNo="1" devices="tripinfo_flow_2.21" vType="DEFAULT_VEHTYPE" speedFactor="1.00" vaporized=""/>
    <tripinfo id="flow_2.22" depart="132.00" departLane="3to2_0" departPos="5.10" departSpeed="0.00" departDelay="0.00" arrival="151.00" arrivalLane="2to1_0" arrivalPos="92.80" arrivalSpeed="12.82" duration="19.00" routeLength="194.90" waitingTime="0.00" waitingCount="0" stopTime="0.00" timeLoss="5.06" rerouteNo="1" devices="tripinfo_flow_2.22" vType="DEFAULT_VEHTYPE" speedFactor="1.02" vaporized=""/>
    <tripinfo id="flow_1.8" depart="48.00" departLane="5to2_0" departPos="5.10" departSpeed="0.00" departDelay="0.00" arrival="158.00" arrivalLane="2to3_0" arrivalPos="92.80" arrivalSpeed="16.19" duration="110.00" routeLength="189.53" waitingTime="45.00" waitingCount="6" stopTime="10.00" timeLoss="87.71" rerouteNo="1" devices="tripinfo_flow_1.8" vType="DEFAULT_VEHTYPE" speedFactor="1.17" vaporized=""/>
    <tripinfo id="flow_2.23" depart="138.00" departLane="3to2_0" departPos="5.10" departSpeed="0.00" departDelay="0.00" arrival="158.00" arrivalLane="2to1_0" arrivalPos="92.80" arrivalSpeed="14.06" duration="20.00" routeLength="194.90" waitingTime="0.00" waitingCount="0" stopTime="0.00" timeLoss="6.30" rerouteNo="1" devices="tripinfo_flow_2.23" vType="DEFAULT_VEHTYPE" speedFactor="1.09" vaporized=""/>
    <tripinfo id="flow_0.16" depart="96.00" departLane="1to2_0" departPos="5.10" departSpeed="0.00" departDelay="0.00" arrival="161.00" arrivalLane="2to4_0" arrivalPos="92.80" arrivalSpeed="12.78" duration="65.00" routeLength="194.69" waitingTime="22.00" waitingCount="2" stopTime="0.00" timeLoss="48.76" rerouteNo="1" devices="tripinfo_flow_0.16" vType="DEFAULT_VEHTYPE" speedFactor="0.94" vaporized=""/>
    <tripinfo id="flow_3.8" depart="48.00" departLane="4to2_0" departPos="5.10" departSpeed="0.00" departDelay="0.00" arrival="163.00" arrivalLane="2to3_0" arrivalPos="92.80" arrivalSpeed="13.33" duration="115.00" routeLength="194.69" waitingTime="43.00" waitingCount="7" stopTime="10.00" timeLoss="90.68" rerouteNo="1" devices="tripinfo_flow_3.8" vType="DEFAULT_VEHTYPE" speedFactor="1.02" vaporized=""/>
    <tripinfo id="flow_2.24" depart="144.00" departLane="3to2_0" departPos="5.10" departSpeed="0.00" departDelay="0.00" arrival="167.00" arrivalLane="2to5_0" arrivalPos="92.80" arrivalSpeed="15.06" duration="23.00" routeLength="194.69" waitingTime="0.00" waitingCount="0" stopTime="0.00" timeLoss="9.39" rerouteNo="1" devices="tripinfo_flow_2.24" vType="DEFAULT_VEHTYPE" speedFactor="1.12" vaporized=""/>
    <tripinfo id="flow_2.25" depart="150.00" departLane="3to2_0" departPos="5.10" departSpeed="0.00" departDelay="0.00" arrival="169.00" arrivalLane="2to1_0" arrivalPos="92.80" arrivalSpeed="12.95" duration="19.00" routeLength="194.90" waitingTime="0.00" waitingCount="0" stopTime="0.00" timeLoss="4.35" rerouteNo="1" devices="tripinfo_flow_2.25" vType="DEFAULT_VEHTYPE" speedFactor="0.97" vaporized=""/>
    <tripinfo id="flow_0.17" depart="102.00" departLane="1to2_0" departPos="5.10" departSpeed="0.00" departDelay="0.00" arrival="174.00" arrivalLane="2to4_0" arrivalPos="92.80" arrivalSpeed="13.83" duration="72.00" routeLength="194.69" waitingTime="29.00" waitingCount="3" stopTime="0.00" timeLoss="57.16" rerouteNo="1" devices="tripinfo_flow_0.17" vType="DEFAULT_VEHTYPE" speedFactor="1.04" vaporized=""/>
    <tripinfo id="flow_1.9" depart="54.00" departLane="5to2_0" departPos="5.10" departSpeed="0.00" departDelay="0.00" arrival="176.00" arrivalLane="2to4_0" arrivalPos="92.80" arrivalSpeed="15.85" duration="122.00" routeLength="194.90" waitingTime="47.00" waitingCount="7" stopTime="10.00" timeLoss="99.26" rerouteNo="1" devices="tripinfo_flow_1.9" vType="DEFAULT_VEHTYPE" speedFactor="1.18" vaporized=""/>
    <tripinfo id="flow_2.26" depart="156.00" departLane="3to2_0" departPos="5.10" departSpeed="0.00" departDelay="0.00" arrival="180.00" arrivalLane="2to1_0" arrivalPos="92.80" arrivalSpeed="13.65" duration="24.00" routeLength="194.90" waitingTime="0.00" waitingCount="0" stopTime="0.00" timeLoss="9.73" rerouteNo="1" devices="tripinfo_flow_2.26" vType="DEFAULT_VEHTYPE" speedFactor="1.01" vaporized=""/>
    <tripinfo id="flow_2.27" depart="162.00" departLane="3to2_0" departPos="5.10" departSpeed="0.00" departDelay="0.00" arrival="184.00" arrivalLane="2to4_0" arrivalPos="92.80" arrivalSpeed="12.08" duration="22.00" routeLength="189.53" waitingTime="0.00" waitingCount="0" stopTime="0.00" timeLoss="5.54" rerouteNo="1" devices="tripinfo_flow_2.27" vType="DEFAULT_VEHTYPE" speedFactor="0.93" vaporized=""/>
    <tripinfo id="flow_3.9" depart="54.00" departLane="4to2_0" departPos="5.10" departSpeed="0.00" departDelay="0.00" arrival="185.00" arrivalLane="2to5_0" arrivalPos="92.80" arrivalSpeed="11.26" duration="131.00" routeLength="194.90" waitingTime="48.00" waitingCount="7" stopTime="10.00" timeLoss="104.74" rerouteNo="1" devices="tripinfo_flow_3.9" vType="DEFAULT_VEHTYPE" speedFactor="0.90" vaporized=""/>
    <tripinfo id="flow_0.18" depart="108.00" departLane="1to2_0" departPos="5.10" departSpeed="0.00" departDelay="0.00" arrival="187.00" arrivalLane="2to4_0" arrivalPos="92.80" arrivalSpeed="12.17" duration="79.00" routeLength="194.69" waitingTime="35.00" waitingCount="4" stopTime="0.00" timeLoss="63.21" rerouteNo="1" devices="tripinfo_flow_0.18" vType="DEFAULT_VEHTYPE" speedFactor="0.94" vaporized=""/>
    <tripinfo id="flow_0.19" depart="114.00" departLane="1to2_0" departPos="5.10" departSpeed="0.00" departDelay="0.00" arrival="189.00" arrivalLane="2to5_0" arrivalPos="92.80" arrivalSpeed="13.14" duration="75.00" routeLength="189.53" waitingTime="31.00" waitingCount="4" stopTime="0.00" timeLoss="60.64" rerouteNo="1" devices="tripinfo_flow_0.19" vType="DEFAULT_VEHTYPE" speedFactor="1.03" vaporized=""/>
    <tripinfo id="flow_1.10" depart="60.00" departLane="5to2_0" departPos="5.10" departSpeed="0.00" departDelay="0.00" arrival="192.00" arrivalLane="2to4_0" arrivalPos="92.80" arrivalSpeed="12.64" duration="132.00" routeLength="194.90" waitingTime="52.00" waitingCount="7" stopTime="10.00" timeLoss="106.99" rerouteNo="1" devices="tripinfo_flow_1.10" vType="DEFAULT_VEHTYPE" speedFactor="0.96" vaporized=""/>
    <tripinfo id="flow_2.28" depart="168.00" departLane="3to2_0" departPos="5.10" departSpeed="0.00" departDelay="0.00" arrival="195.00" arrivalLane="2to5_0" arrivalPos="92.80" arrivalSpeed="14.97" duration="27.00" routeLength="194.69" waitingTime="4.00" waitingCount="1" stopTime="0.00" timeLoss="13.21" rerouteNo="1" devices="tripinfo_flow_2.28" vType="DEFAULT_VEHTYPE" speedFactor="1.10" vaporized=""/>
    <tripinfo id="flow_0.20" depart="120.00" departLane="1to2_0" departPos="5.10" departSpeed="0.00" departDelay="0.00" arrival="196.00" arrivalLane="2to4_0" arrivalPos="92.80" arrivalSpeed="14.18" duration="76.00" routeLength="194.69" waitingTime="25.00" waitingCount="4" stopTime="0.00" timeLoss="61.82" rerouteNo="1" devices="tripinfo_flow_0.20" vType="DEFAULT_VEHTYPE" speedFactor="1.03" vaporized=""/>
    <tripinfo id="flow_0.21" depart="126.00" departLane="1to2_0" departPos="5.10" departSpeed="0.00" departDelay="0.00" arrival="198.00" arrivalLane="2to3_0" arrivalPos="92.80" arrivalSpeed="14.89" duration="72.00" routeLength="194.90" waitingTime="23.00" waitingCount="3" stopTime="0.00" timeLoss="59.12" rerouteNo="1" devices="tripinfo_flow_0.21" vType="DEFAULT_VEHTYPE" speedFactor="1.15" vaporized=""/>