<?xml version="1.0" encoding="UTF-8"?>

<!-- generated on 2021-10-28 15:36:16 by Eclipse SUMO GUI Version 1.10.0
<configuration xmlns:xsi="http://www.w3.org/2001/XMLSchema-instance" xsi:noNamespaceSchemaLocation="http://sumo.dlr.de/xsd/sumoConfiguration.xsd">

    <input>
        <net-file value="../Net/NetworkCrossNotraficLight.net.xml"/>
        <route-files value="../Net/NetworkCrossNoTrafficLight.rou.xml"/>
    </input>

    <output>
        <tripinfo-output value="tripinfo.xml"/>
    </output>

    <processing>
        <collision.check-junctions value="true"/>
    </processing>

    <traci_server>
        <remote-port value="64117"/>
    </traci_server>

    <random_number>
        <random value="true"/>
    </random_number>

</configuration>
-->

<tripinfos xmlns:xsi="http://www.w3.org/2001/XMLSchema-instance" xsi:noNamespaceSchemaLocation="http://sumo.dlr.de/xsd/tripinfo_file.xsd">
</tripinfos>
id="flow_0.0" depart="0.00" departLane="1to2_0" departPos="5.10" departSpeed="14.47" departDelay="0.00" arrival="16.00" arrivalLane="2to3_0" arrivalPos="92.80" arrivalSpeed="14.47" duration="16.00" routeLength="194.90" waitingTime="0.00" waitingCount="0" stopTime="0.00" timeLoss="1.68" rerouteNo="0" devices="tripinfo_flow_0.0" vType="vtype" speedFactor="1.04" vaporized=""/>
    <tripinfo id="flow_2.0" depart="0.00" departLane="3to2_0" departPos="5.10" departSpeed="15.07" departDelay="0.00" arrival="17.00" arrivalLane="2to5_0" arrivalPos="92.80" arrivalSpeed="15.06" duration="17.00" routeLength="194.69" waitingTime="0.00" waitingCount="0" stopTime="0.00" timeLoss="3.50" rerouteNo="0" devices="tripinfo_flow_2.0" vType="vtype" speedFactor="1.08" vaporized=""/>
    <tripinfo id="flow_3.0" depart="0.00" departLane="4to2_0" departPos="5.10" departSpeed="13.83" departDelay="0.00" arrival="18.00" arrivalLane="2to3_0" arrivalPos="92.80" arrivalSpeed="13.66" duration="18.00" routeLength="194.69" waitingTime="0.00" waitingCount="0" stopTime="0.00" timeLoss="2.93" rerouteNo="0" devices="tripinfo_flow_3.0" vType="vtype" speedFactor="1.00" vaporized=""/>
    <tripinfo id="flow_1.0" depart="0.00" departLane="5to2_0" departPos="5.10" departSpeed="14.75" departDelay="0.00" arrival="21.00" arrivalLane="2to3_0" arrivalPos="92.80" arrivalSpeed="14.59" duration="21.00" routeLength="189.53" waitingTime="0.00" waitingCount="0" stopTime="0.00" timeLoss="7.20" rerouteNo="0" devices="tripinfo_flow_1.0" vType="vtype" speedFactor="1.06" vaporized=""/>
    <tripinfo id="flow_2.1" depart="9.00" departLane="3to2_0" departPos="5.10" departSpeed="14.56" departDelay="0.00" arrival="25.00" arrivalLane="2to5_0" arrivalPos="92.80" arrivalSpeed="14.56" duration="16.00" routeLength="194.69" waitingTime="0.00" waitingCount="0" stopTime="0.00" timeLoss="1.10" rerouteNo="0" devices="tripinfo_flow_2.1" vType="vtype" speedFactor="1.05" vaporized=""/>
    <tripinfo id="flow_0.1" depart="9.00" departLane="1to2_0" departPos="5.10" departSpeed="11.78" departDelay="0.00" arrival="27.00" arrivalLane="2to5_0" arrivalPos="92.80" arrivalSpeed="11.73" duration="18.00" routeLength="189.53" waitingTime="0.00" waitingCount="0" stopTime="0.00" timeLoss="0.59" rerouteNo="0" devices="tripinfo_flow_0.1" vType="vtype" speedFactor="0.85" vaporized=""/>
    <tripinfo id="flow_1.1" depart="9.00" departLane="5to2_0" departPos="5.10" departSpeed="13.78" departDelay="0.00" arrival="28.00" arrivalLane="2to1_0" arrivalPos="92.80" arrivalSpeed="13.75" duration="19.00" routeLength="194.69" waitingTime="0.00" waitingCount="0" stopTime="0.00" timeLoss="3.59" rerouteNo="0" devices="tripinfo_flow_1.1" vType="vtype" speedFactor="0.99" vaporized=""/>
    <tripinfo id="flow_3.1" depart="9.00" departLane="4to2_0" departPos="5.10" departSpeed="15.78" departDelay="0.00" arrival="30.00" arrivalLane="2to1_0" arrivalPos="92.80" arrivalSpeed="15.01" duration="21.00" routeLength="189.53" waitingTime="0.00" waitingCount="0" stopTime="0.00" timeLoss="8.58" rerouteNo="0" devices="tripinfo_flow_3.1" vType="vtype" speedFactor="1.14" vaporized=""/>
    <tripinfo id="flow_2.2" depart="18.00" departLane="3to2_0" departPos="5.10" departSpeed="14.45" departDelay="0.00" arrival="32.00" arrivalLane="2to4_0" arrivalPos="92.80" arrivalSpeed="14.42" duration="14.00" routeLength="189.53" waitingTime="0.00" waitingCount="0" stopTime="0.00" timeLoss="2.02" rerouteNo="0" devices="tripinfo_flow_2.2" vType="vtype" speedFactor="1.04" vaporized=""/>
    <tripinfo id="flow_3.2" depart="18.00" departLane="4to2_0" departPos="5.10" departSpeed="14.03" departDelay="0.00" arrival="33.00" arrivalLane="2to1_0" arrivalPos="92.80" arrivalSpeed="13.97" duration="15.00" routeLength="189.53" waitingTime="0.00" waitingCount="0" stopTime="0.00" timeLoss="0.92" rerouteNo="0" devices="tripinfo_flow_3.2" vType="vtype" speedFactor="1.01" vaporized=""/>
    <tripinfo id="flow_1.2" depart="18.00" departLane="5to2_0" departPos="5.10" departSpeed="14.60" departDelay="0.00" arrival="34.00" arrivalLane="2to4_0" arrivalPos="92.80" arrivalSpeed="14.40" duration="16.00" routeLength="194.90" waitingTime="0.00" waitingCount="0" stopTime="0.00" timeLoss="2.42" rerouteNo="0" devices="tripinfo_flow_1.2" vType="vtype" speedFactor="1.05" vaporized=""/>
    <tripinfo id="flow_0.2" depart="18.00" departLane="1to2_0" departPos="5.10" departSpeed="11.84" departDelay="0.00" arrival="39.00" arrivalLane="2to3_0" arrivalPos="92.80" arrivalSpeed="11.83" duration="21.00" routeLength="194.90" waitingTime="0.00" waitingCount="0" stopTime="0.00" timeLoss="4.36" rerouteNo="0" devices="tripinfo_flow_0.2" vType="vtype" speedFactor="0.85" vaporized=""/>
    <tripinfo id="flow_2.3" depart="27.00" departLane="3to2_0" departPos="5.10" departSpeed="14.64" departDelay="0.00" arrival="40.00" arrivalLane="2to5_0" arrivalPos="92.80" arrivalSpeed="17.00" duration="13.00" routeLength="194.69" waitingTime="0.00" waitingCount="0" stopTime="0.00" timeLoss="4.35" rerouteNo="0" devices="tripinfo_flow_2.3" vType="vtype" speedFactor="1.05" vaporized="teleport"/>
    <tripinfo id="flow_1.3" depart="27.00" departLane="5to2_0" departPos="5.10" departSpeed="15.28" departDelay="0.00" arrival="44.00" arrivalLane="2to4_0" arrivalPos="92.80" arrivalSpeed="15.23" duration="17.00" routeLength="194.90" waitingTime="0.00" waitingCount="0" stopTime="0.00" timeLoss="3.67" rerouteNo="0" devices="tripinfo_flow_1.3" vType="vtype" speedFactor="1.10" vaporized=""/>
    <tripinfo id="flow_3.3" depart="27.00" departLane="4to2_0" departPos="5.10" departSpeed="15.11" departDelay="0.00" arrival="46.00" arrivalLane="2to5_0" arrivalPos="92.80" arrivalSpeed="14.87" duration="19.00" routeLength="194.90" waitingTime="0.00" waitingCount="0" stopTime="0.00" timeLoss="6.59" rerouteNo="0" devices="tripinfo_flow_3.3" vType="vtype" speedFactor="1.09" vaporized=""/>
    <tripinfo id="flow_0.3" depart="27.00" departLane="1to2_0" departPos="5.10" departSpeed="13.87" departDelay="0.00" arrival="47.00" arrivalLane="2to4_0" arrivalPos="92.80" arrivalSpeed="13.80" duration="20.00" routeLength="194.69" waitingTime="0.00" waitingCount="0" stopTime="0.00" timeLoss="4.52" rerouteNo="0" devices="tripinfo_flow_0.3" vType="vtype" speedFactor="1.00" vaporized=""/>
    <tripinfo id="flow_3.4" depart="36.00" departLane="4to2_0" departPos="5.10" departSpeed="15.54" departDelay="0.00" arrival="50.00" arrivalLane="2to1_0" arrivalPos="92.80" arrivalSpeed="15.54" duration="14.00" routeLength="189.53" waitingTime="0.00" waitingCount="0" stopTime="0.00" timeLoss="0.67" rerouteNo="0" devices="tripinfo_flow_3.4" vType="vtype" speedFactor="1.12" vaporized=""/>
    <tripinfo id="flow_2.4" depart="36.00" departLane="3to2_0" departPos="5.10" departSpeed="14.31" departDelay="0.00" arrival="51.00" arrivalLane="2to5_0" arrivalPos="92.80" arrivalSpeed="14.29" duration="15.00" routeLength="194.69" waitingTime="0.00" waitingCount="0" stopTime="0.00" timeLoss="0.27" rerouteNo="0" devices="tripinfo_flow_2.4" vType="vtype" speedFactor="1.03" vaporized=""/>
    <tripinfo id="flow_0.4" depart="36.00" departLane="1to2_0" departPos="5.10" departSpeed="12.50" departDelay="0.00" arrival="53.00" arrivalLane="2to3_0" arrivalPos="92.80" arrivalSpeed="12.49" duration="17.00" routeLength="194.90" waitingTime="0.00" waitingCount="0" stopTime="0.00" timeLoss="0.69" rerouteNo="0" devices="tripinfo_flow_0.4" vType="vtype" speedFactor="0.90" vaporized=""/>
    <tripinfo id="flow_1.4" depart="36.00" departLane="5to2_0" departPos="5.10" departSpeed="12.98" departDelay="0.00" arrival="56.00" arrivalLane="2to3_0" arrivalPos="92.80" arrivalSpeed="12.93" duration="20.00" routeLength="189.53" waitingTime="0.00" waitingCount="0" stopTime="0.00" timeLoss="3.87" rerouteNo="0" devices="tripinfo_flow_1.4" vType="vtype" speedFactor="0.93" vaporized=""/>
    <tripinfo id="flow_2.5" depart="45.00" departLane="3to2_0" departPos="5.10" departSpeed="15.50" departDelay="0.00" arrival="60.00" arrivalLane="2to5_0" arrivalPos="92.80" arrivalSpeed="15.47" duration="15.00" routeLength="194.69" waitingTime="0.00" waitingCount="0" stopTime="0.00" timeLoss="1.68" rerouteNo="0" devices="tripinfo_flow_2.5" vType="vtype" speedFactor="1.12" vaporized=""/>
    <tripinfo id="flow_0.5" depart="45.00" departLane="1to2_0" departPos="5.10" departSpeed="14.67" departDelay="0.00" arrival="62.00" arrivalLane="2to4_0" arrivalPos="92.80" arrivalSpeed="14.66" duration="17.00" routeLength="194.69" waitingTime="0.00" waitingCount="0" stopTime="0.00" timeLoss="2.28" rerouteNo="0" devices="tripinfo_flow_0.5" vType="vtype" speedFactor="1.06" vaporized=""/>
    <tripinfo id="flow_1.5" depart="45.00" departLane="5to2_0" departPos="5.10" departSpeed="15.61" departDelay="0.00" arrival="62.00" arrivalLane="2to1_0" arrivalPos="92.80" arrivalSpeed="15.61" duration="17.00" routeLength="194.69" waitingTime="0.00" waitingCount="0" stopTime="0.00" timeLoss="3.38" rerouteNo="0" devices="tripinfo_flow_1.5" vType="vtype" speedFactor="1.12" vaporized=""/>
    <tripinfo id="flow_3.5" depart="45.00" departLane="4to2_0" departPos="5.10" departSpeed="12.86" departDelay="0.00" arrival="64.00" arrivalLane="2to1_0" arrivalPos="92.80" arrivalSpeed="12.78" duration="19.00" routeLength="189.53" waitingTime="0.00" waitingCount="0" stopTime="0.00" timeLoss="3.51" rerouteNo="0" devices="tripinfo_flow_3.5" vType="vtype" speedFactor="0.93" vaporized=""/>
    <tripinfo id="flow_0.6" depart="54.00" departLane="1to2_0" departPos="5.10" departSpeed="14.70" departDelay="0.00" arrival="69.00" arrivalLane="2to5_0" arrivalPos="92.80" arrivalSpeed="14.70" duration="15.00" routeLength="189.53" waitingTime="0.00" waitingCount="0" stopTime="0.00" timeLoss="1.46" rerouteNo="0" devices="tripinfo_flow_0.6" vType="vtype" speedFactor="1.06" vaporized=""/>
    <tripinfo id="flow_2.6" depart="54.00" departLane="3to2_0" departPos="5.10" departSpeed="13.83" departDelay="0.00" arrival="71.00" arrivalLane="2to4_0" arrivalPos="92.80" arrivalSpeed="13.82" duration="17.00" routeLength="189.53" waitingTime="0.00" waitingCount="0" stopTime="0.00" timeLoss="1.81" rerouteNo="0" devices="tripinfo_flow_2.6" vType="vtype" speedFactor="1.00" vaporized=""/>
    <tripinfo id="flow_1.6" depart="54.00" departLane="5to2_0" departPos="5.10" departSpeed="14.30" departDelay="0.00" arrival="73.00" arrivalLane="2to4_0" arrivalPos="92.80" arrivalSpeed="14.05" duration="19.00" routeLength="194.90" waitingTime="0.00" waitingCount="0" stopTime="0.00" timeLoss="5.03" rerouteNo="0" devices="tripinfo_flow_1.6" vType="vtype" speedFactor="1.03" vaporized=""/>
    <tripinfo id="flow_3.6" depart="54.00" departLane="4to2_0" departPos="5.10" departSpeed="13.55" departDelay="0.00" arrival="74.00" arrivalLane="2to3_0" arrivalPos="92.80" arrivalSpeed="13.50" duration="20.00" routeLength="194.69" waitingTime="0.00" waitingCount="0" stopTime="0.00" timeLoss="4.68" rerouteNo="0" devices="tripinfo_flow_3.6" vType="vtype" speedFactor="0.98" vaporized=""/>
    <tripinfo id="flow_0.7" depart="63.00" departLane="1to2_0" departPos="5.10" departSpeed="13.42" departDelay="0.00" arrival="79.00" arrivalLane="2to5_0" arrivalPos="92.80" arrivalSpeed="13.42" duration="16.00" routeLength="189.53" waitingTime="0.00" waitingCount="0" stopTime="0.00" timeLoss="1.01" rerouteNo="0" devices="tripinfo_flow_0.7" vType="vtype" speedFactor="0.97" vaporized=""/>
    <tripinfo id="flow_1.7" depart="63.00" departLane="5to2_0" departPos="5.10" departSpeed="15.35" departDelay="0.00" arrival="80.00" arrivalLane="2to4_0" arrivalPos="92.80" arrivalSpeed="15.20" duration="17.00" routeLength="194.90" waitingTime="0.00" waitingCount="0" stopTime="0.00" timeLoss="3.94" rerouteNo="0" devices="tripinfo_flow_1.7" vType="vtype" speedFactor="1.10" vaporized=""/>
    <tripinfo id="flow_3.7" depart="63.00" departLane="4to2_0" departPos="5.10" departSpeed="14.54" departDelay="0.00" arrival="81.00" arrivalLane="2to5_0" arrivalPos="92.80" arrivalSpeed="14.04" duration="18.00" routeLength="194.90" waitingTime="0.00" waitingCount="0" stopTime="0.00" timeLoss="4.42" rerouteNo="0" devices="tripinfo_flow_3.7" vType="vtype" speedFactor="1.05" vaporized=""/>
    <tripinfo id="flow_2.7" depart="63.00" departLane="3to2_0" departPos="5.10" departSpeed="13.03" departDelay="0.00" arrival="83.00" arrivalLane="2to1_0" arrivalPos="92.80" arrivalSpeed="13.03" duration="20.00" routeLength="194.90" waitingTime="0.00" waitingCount="0" stopTime="0.00" timeLoss="4.52" rerouteNo="0" devices="tripinfo_flow_2.7" vType="vtype" speedFactor="0.94" vaporized=""/>
    <tripinfo id="flow_3.8" depart="72.00" departLane="4to2_0" departPos="5.10" departSpeed="14.51" departDelay="0.00" arrival="87.00" arrivalLane="2to1_0" arrivalPos="92.80" arrivalSpeed="14.49" duration="15.00" routeLength="189.53" waitingTime="0.00" waitingCount="0" stopTime="0.00" timeLoss="0.61" rerouteNo="0" devices="tripinfo_flow_3.8" vType="vtype" speedFactor="1.04" vaporized=""/>
    <tripinfo id="flow_0.8" depart="72.00" departLane="1to2_0" departPos="5.10" departSpeed="14.41" departDelay="0.00" arrival="89.00" arrivalLane="2to3_0" arrivalPos="92.80" arrivalSpeed="14.41" duration="17.00" routeLength="194.90" waitingTime="0.00" waitingCount="0" stopTime="0.00" timeLoss="2.63" rerouteNo="0" devices="tripinfo_flow_0.8" vType="vtype" speedFactor="1.04" vaporized=""/>
    <tripinfo id="flow_2.8" depart="72.00" departLane="3to2_0" departPos="5.10" departSpeed="13.35" departDelay="0.00" arrival="91.00" arrivalLane="2to1_0" arrivalPos="92.80" arrivalSpeed="13.34" duration="19.00" routeLength="194.90" waitingTime="0.00" waitingCount="0" stopTime="0.00" timeLoss="3.43" rerouteNo="0" devices="tripinfo_flow_2.8" vType="vtype" speedFactor="0.96" vaporized=""/>
    <tripinfo id="flow_1.8" depart="72.00" departLane="5to2_0" departPos="5.10" departSpeed="11.98" departDelay="0.00" arrival="93.00" arrivalLane="2to3_0" arrivalPos="92.80" arrivalSpeed="11.97" duration="21.00" routeLength="189.53" waitingTime="0.00" waitingCount="0" stopTime="0.00" timeLoss="3.58" rerouteNo="0" devices="tripinfo_flow_1.8" vType="vtype" speedFactor="0.86" vaporized=""/>
    <tripinfo id="flow_0.9" depart="81.00" departLane="1to2_0" departPos="5.10" departSpeed="13.61" departDelay="0.00" arrival="99.00" arrivalLane="2to4_0" arrivalPos="92.80" arrivalSpeed="13.61" duration="18.00" routeLength="194.69" waitingTime="0.00" waitingCount="0" stopTime="0.00" timeLoss="3.06" rerouteNo="0" devices="tripinfo_flow_0.9" vType="vtype" speedFactor="0.98" vaporized=""/>
    <tripinfo id="flow_1.9" depart="81.00" departLane="5to2_0" departPos="5.10" departSpeed="11.87" departDelay="0.00" arrival="99.00" arrivalLane="2to3_0" arrivalPos="92.80" arrivalSpeed="11.87" duration="18.00" routeLength="189.53" waitingTime="0.00" waitingCount="0" stopTime="0.00" timeLoss="-0.07" rerouteNo="0" devices="tripinfo_flow_1.9" vType="vtype" speedFactor="0.85" vaporized=""/>
    <tripinfo id="flow_2.9" depart="81.00" departLane="3to2_0" departPos="5.10" departSpeed="13.37" departDelay="0.00" arrival="100.00" arrivalLane="2to1_0" arrivalPos="92.80" arrivalSpeed="13.34" duration="19.00" routeLength="194.90" waitingTime="0.00" waitingCount="0" stopTime="0.00" timeLoss="4.32" rerouteNo="0" devices="tripinfo_flow_2.9" vType="vtype" speedFactor="0.96" vaporized=""/>
    <tripinfo id="flow_3.9" depart="81.00" departLane="4to2_0" departPos="5.10" departSpeed="15.75" departDelay="0.00" arrival="103.00" arrivalLane="2to1_0" arrivalPos="92.80" arrivalSpeed="15.34" duration="22.00" routeLength="189.53" waitingTime="0.00" waitingCount="0" stopTime="0.00" timeLoss="8.29" rerouteNo="0" devices="tripinfo_flow_3.9" vType="vtype" speedFactor="1.13" vaporized=""/>
    <tripinfo id="flow_1.10" depart="90.00" departLane="5to2_0" departPos="5.10" departSpeed="14.26" departDelay="0.00" arrival="106.00" arrivalLane="2to3_0" arrivalPos="92.80" arrivalSpeed="14.23" duration="16.00" routeLength="189.53" waitingTime="0.00" waitingCount="0" stopTime="0.00" timeLoss="1.32" rerouteNo="0" devices="tripinfo_flow_1.10" vType="vtype" speedFactor="1.03" vaporized=""/>
    <tripinfo id="flow_3.10" depart="90.00" departLane="4to2_0" departPos="5.10" departSpeed="13.64" departDelay="0.00" arrival="107.00" arrivalLane="2to1_0" arrivalPos="92.80" arrivalSpeed="13.64" duration="17.00" routeLength="189.53" waitingTime="0.00" waitingCount="0" stopTime="0.00" timeLoss="2.21" rerouteNo="0" devices="tripinfo_flow_3.10" vType="vtype" speedFactor="0.98" vaporized=""/>
    <tripinfo id="flow_2.10" depart="90.00" departLane="3to2_0" departPos="5.10" departSpeed="13.49" departDelay="0.00" arrival="108.00" arrivalLane="2to4_0" arrivalPos="92.80" arrivalSpeed="13.49" duration="18.00" routeLength="189.53" waitingTime="0.00" waitingCount="0" stopTime="0.00" timeLoss="3.66" rerouteNo="0" devices="tripinfo_flow_2.10" vType="vtype" speedFactor="0.97" vaporized=""/>
    <tripinfo id="flow_0.10" depart="90.00" departLane="1to2_0" departPos="5.10" departSpeed="14.52" departDelay="0.00" arrival="110.00" arrivalLane="2to4_0" arrivalPos="92.80" arrivalSpeed="13.95" duration="20.00" routeLength="194.69" waitingTime="0.00" waitingCount="0" stopTime="0.00" timeLoss="5.68" rerouteNo="0" devices="tripinfo_flow_0.10" vType="vtype" speedFactor="1.05" vaporized=""/>
    <tripinfo id="flow_0.11" depart="99.00" departLane="1to2_0" departPos="5.10" departSpeed="15.94" departDelay="0.00" arrival="115.00" arrivalLane="2to3_0" arrivalPos="92.80" arrivalSpeed="15.78" duration="16.00" routeLength="194.90" waitingTime="0.00" waitingCount="0" stopTime="0.00" timeLoss="3.56" rerouteNo="0" devices="tripinfo_flow_0.11" vType="vtype" speedFactor="1.15" vaporized=""/>
    <tripinfo id="flow_2.11" depart="99.00" departLane="3to2_0" departPos="5.10" departSpeed="14.73" departDelay="0.00" arrival="116.00" arrivalLane="2to1_0" arrivalPos="92.80" arrivalSpeed="14.73" duration="17.00" routeLength="194.90" waitingTime="0.00" waitingCount="0" stopTime="0.00" timeLoss="3.40" rerouteNo="0" devices="tripinfo_flow_2.11" vType="vtype" speedFactor="1.06" vaporized=""/>
    <tripinfo id="flow_3.11" depart="99.00" departLane="4to2_0" departPos="5.10" departSpeed="14.44" departDelay="0.00" arrival="117.00" arrivalLane="2to5_0" arrivalPos="92.80" arrivalSpeed="14.44" duration="18.00" routeLength="194.90" waitingTime="0.00" waitingCount="0" stopTime="0.00" timeLoss="3.74" rerouteNo="0" devices="tripinfo_flow_3.11" vType="vtype" speedFactor="1.04" vaporized=""/>
    <tripinfo id="flow_1.11" depart="99.00" departLane="5to2_0" departPos="5.10" departSpeed="16.06" departDelay="0.00" arrival="119.00" arrivalLane="2to1_0" arrivalPos="92.80" arrivalSpeed="15.83" duration="20.00" routeLength="194.69" waitingTime="0.00" waitingCount="0" stopTime="0.00" timeLoss="6.52" rerouteNo="0" devices="tripinfo_flow_1.11" vType="vtype" speedFactor="1.16" vaporized=""/>
    <tripinfo id="flow_1.12" depart="108.00" departLane="5to2_0" departPos="5.10" departSpeed="14.94" departDelay="0.00" arrival="123.00" arrivalLane="2to3_0" arrivalPos="92.80" arrivalSpeed="14.82" duration="15.00" routeLength="189.53" waitingTime="0.00" waitingCount="0" stopTime="0.00" timeLoss="1.11" rerouteNo="0" devices="tripinfo_flow_1.12" vType="vtype" speedFactor="1.08" vaporized=""/>
    <tripinfo id="flow_3.12" depart="108.00" departLane="4to2_0" departPos="5.10" departSpeed="15.79" departDelay="0.00" arrival="125.00" arrivalLane="2to3_0" arrivalPos="92.80" arrivalSpeed="15.13" duration="17.00" routeLength="194.69" waitingTime="0.00" waitingCount="0" stopTime="0.00" timeLoss="3.70" rerouteNo="0" devices="tripinfo_flow_3.12" vType="vtype" speedFactor="1.14" vaporized=""/>
    <tripinfo id="flow_2.12" depart="108.00" departLane="3to2_0" departPos="5.10" departSpeed="13.98" departDelay="0.00" arrival="126.00" arrivalLane="2to1_0" arrivalPos="92.80" arrivalSpeed="13.93" duration="18.00" routeLength="194.90" waitingTime="0.00" waitingCount="0" stopTime="0.00" timeLoss="3.96" rerouteNo="0" devices="tripinfo_flow_2.12" vType="vtype" speedFactor="1.01" vaporized=""/>
    <tripinfo id="flow_0.12" depart="108.00" departLane="1to2_0" departPos="5.10" departSpeed="12.12" departDelay="0.00" arrival="130.00" arrivalLane="2to5_0" arrivalPos="92.80" arrivalSpeed="12.11" duration="22.00" routeLength="189.53" waitingTime="0.00" waitingCount="0" stopTime="0.00" timeLoss="5.46" rerouteNo="0" devices="tripinfo_flow_0.12" vType="vtype" speedFactor="0.87" vaporized=""/>
    <tripinfo id="flow_3.13" depart="117.00" departLane="4to2_0" departPos="5.10" departSpeed="14.50" departDelay="0.00" arrival="135.00" arrivalLane="2to1_0" arrivalPos="92.80" arrivalSpeed="14.37" duration="18.00" routeLength="189.53" waitingTime="0.00" waitingCount="0" stopTime="0.00" timeLoss="3.94" rerouteNo="0" devices="tripinfo_flow_3.13" vType="vtype" speedFactor="1.04" vaporized=""/>
    <tripinfo id="flow_0.13" depart="117.00" departLane="1to2_0" departPos="5.10" departSpeed="12.75" departDelay="0.00" arrival="136.00" arrivalLane="2to5_0" arrivalPos="92.80" arrivalSpeed="12.74" duration="19.00" routeLength="189.53" waitingTime="0.00" waitingCount="0" stopTime="0.00" timeLoss="2.91" rerouteNo="0" devices="tripinfo_flow_0.13" vType="vtype" speedFactor="0.92" vaporized=""/>
    <tripinfo id="flow_1.13" depart="117.00" departLane="5to2_0" departPos="5.10" departSpeed="14.97" departDelay="0.00" arrival="136.00" arrivalLane="2to3_0" arrivalPos="92.80" arrivalSpeed="14.94" duration="19.00" routeLength="189.53" waitingTime="0.00" waitingCount="0" stopTime="0.00" timeLoss="4.97" rerouteNo="0" devices="tripinfo_flow_1.13" vType="vtype" speedFactor="1.08" vaporized=""/>
    <tripinfo id="flow_2.13" depart="117.00" departLane="3to2_0" departPos="5.10" departSpeed="9.80" departDelay="0.00" arrival="137.00" arrivalLane="2to4_0" arrivalPos="92.80" arrivalSpeed="9.80" duration="20.00" routeLength="189.53" waitingTime="0.00" waitingCount="0" stopTime="0.00" timeLoss="-1.47" rerouteNo="0" devices="tripinfo_flow_2.13" vType="vtype" speedFactor="0.71" vaporized=""/>
    <tripinfo id="flow_1.14" depart="126.00" departLane="5to2_0" departPos="5.10" departSpeed="14.93" departDelay="0.00" arrival="143.00" arrivalLane="2to1_0" arrivalPos="92.80" arrivalSpeed="14.81" duration="17.00" routeLength="194.69" waitingTime="0.00" waitingCount="0" stopTime="0.00" timeLoss="3.15" rerouteNo="0" devices="tripinfo_flow_1.14" vType="vtype" speedFactor="1.08" vaporized=""/>
    <tripinfo id="flow_3.14" depart="126.00" departLane="4to2_0" departPos="5.10" departSpeed="13.20" departDelay="0.00" arrival="144.00" arrivalLane="2to5_0" arrivalPos="92.80" arrivalSpeed="13.19" duration="18.00" routeLength="194.90" waitingTime="0.00" waitingCount="0" stopTime="0.00" timeLoss="2.86" rerouteNo="0" devices="tripinfo_flow_3.14" vType="vtype" speedFactor="0.95" vaporized=""/>
    <tripinfo id="flow_0.14" depart="126.00" departLane="1to2_0" departPos="5.10" departSpeed="15.67" departDelay="0.00" arrival="146.00" arrivalLane="2to5_0" arrivalPos="92.80" arrivalSpeed="14.70" duration="20.00" routeLength="189.53" waitingTime="0.00" waitingCount="0" stopTime="0.00" timeLoss="6.80" rerouteNo="0" devices="tripinfo_flow_0.14" vType="vtype" speedFactor="1.13" vaporized=""/>
    <tripinfo id="flow_3.15" depart="135.00" departLane="4to2_0" departPos="5.10" departSpeed="15.49" departDelay="0.00" arrival="146.00" arrivalLane="2to1_0" arrivalPos="92.80" arrivalSpeed="12.00" duration="11.00" routeLength="189.53" waitingTime="0.00" waitingCount="0" stopTime="0.00" timeLoss="3.33" rerouteNo="0" devices="tripinfo_flow_3.15" vType="vtype" speedFactor="1.12" vaporized="teleport"/>
    <tripinfo id="flow_2.14" depart="126.00" departLane="3to2_0" departPos="5.10" departSpeed="12.02" departDelay="0.00" arrival="149.00" arrivalLane="2to1_0" arrivalPos="92.80" arrivalSpeed="12.02" duration="23.00" routeLength="194.90" waitingTime="0.00" waitingCount="0" stopTime="0.00" timeLoss="6.20" rerouteNo="0" devices="tripinfo_flow_2.14" vType="vtype" speedFactor="0.87" vaporized=""/>
    <tripinfo id="flow_2.15" depart="135.00" departLane="3to2_0" departPos="5.10" departSpeed="15.48" departDelay="0.00" arrival="151.00" arrivalLane="2to1_0" arrivalPos="92.80" arrivalSpeed="14.90" duration="16.00" routeLength="194.90" waitingTime="0.00" waitingCount="0" stopTime="0.00" timeLoss="3.06" rerouteNo="0" devices="tripinfo_flow_2.15" vType="vtype" speedFactor="1.11" vaporized=""/>
    <tripinfo id="flow_0.15" depart="135.00" departLane="1to2_0" departPos="5.10" departSpeed="16.16" departDelay="0.00" arrival="153.00" arrivalLane="2to3_0" arrivalPos="92.80" arrivalSpeed="15.93" duration="18.00" routeLength="194.90" waitingTime="0.00" waitingCount="0" stopTime="0.00" timeLoss="5.60" rerouteNo="0" devices="tripinfo_flow_0.15" vType="vtype" speedFactor="1.16" vaporized=""/>
    <tripinfo id="flow_1.15" depart="135.00" departLane="5to2_0" departPos="5.10" departSpeed="14.35" departDelay="0.00" arrival="153.00" arrivalLane="2to1_0" arrivalPos="92.80" arrivalSpeed="13.91" duration="18.00" routeLength="194.69" waitingTime="0.00" waitingCount="0" stopTime="0.00" timeLoss="3.46" rerouteNo="0" devices="tripinfo_flow_1.15" vType="vtype" speedFactor="1.03" vaporized=""/>
    <tripinfo id="flow_1.16" depart="144.00" departLane="5to2_0" departPos="5.10" departSpeed="11.34" departDelay="0.00" arrival="154.00" arrivalLane="2to3_0" arrivalPos="92.80" arrivalSpeed="5.00" duration="10.00" routeLength="189.53" waitingTime="0.00" waitingCount="0" stopTime="0.00" timeLoss="0.43" rerouteNo="0" devices="tripinfo_flow_1.16" vType="vtype" speedFactor="0.82" vaporized="teleport"/>
    <tripinfo id="flow_3.16" depart="144.00" departLane="4to2_0" departPos="5.10" departSpeed="14.05" departDelay="0.00" arrival="162.00" arrivalLane="2to3_0" arrivalPos="92.80" arrivalSpeed="14.00" duration="18.00" routeLength="194.69" waitingTime="0.00" waitingCount="0" stopTime="0.00" timeLoss="3.05" rerouteNo="0" devices="tripinfo_flow_3.16" vType="vtype" speedFactor="1.01" vaporized=""/>
    <tripinfo id="flow_2.16" depart="144.00" departLane="3to2_0" departPos="5.10" departSpeed="11.94" departDelay="0.00" arrival="163.00" arrivalLane="2to1_0" arrivalPos="92.80" arrivalSpeed="11.93" duration="19.00" routeLength="194.90" waitingTime="0.00" waitingCount="0" stopTime="0.00" timeLoss="2.58" rerouteNo="0" devices="tripinfo_flow_2.16" vType="vtype" speedFactor="0.86" vaporized=""/>
    <tripinfo id="flow_0.16" depart="144.00" departLane="1to2_0" departPos="5.10" departSpeed="11.96" departDelay="0.00" arrival="164.00" arrivalLane="2to4_0" arrivalPos="92.80" arrivalSpeed="11.96" duration="20.00" routeLength="194.69" waitingTime="0.00" waitingCount="0" stopTime="0.00" timeLoss="2.30" rerouteNo="0" devices="tripinfo_flow_0.16" vType="vtype" speedFactor="0.86" vaporized=""/>
    <tripinfo id="flow_3.17" depart="153.00" departLane="4to2_0" departPos="5.10" departSpeed="14.11" departDelay="0.00" arrival="168.00" arrivalLane="2to3_0" arrivalPos="92.80" arrivalSpeed="14.11" duration="15.00" routeLength="194.69" waitingTime="0.00" waitingCount="0" stopTime="0.00" timeLoss="0.11" rerouteNo="0" devices="tripinfo_flow_3.17" vType="vtype" speedFactor="1.02" vaporized=""/>
    <tripinfo id="flow_1.17" depart="153.00" departLane="5to2_0" departPos="5.10" departSpeed="14.61" departDelay="0.00" arrival="171.00" arrivalLane="2to4_0" arrivalPos="92.80" arrivalSpeed="14.61" duration="18.00" routeLength="194.90" waitingTime="0.00" waitingCount="0" stopTime="0.00" timeLoss="4.35" rerouteNo="0" devices="tripinfo_flow_1.17" vType="vtype" speedFactor="1.05" vaporized=""/>
    <tripinfo id="flow_0.17" depart="153.00" departLane="1to2_0" departPos="5.10" departSpeed="13.36" departDelay="0.00" arrival="173.00" arrivalLane="2to5_0" arrivalPos="92.80" arrivalSpeed="13.33" duration="20.00" routeLength="189.53" waitingTime="0.00" waitingCount="0" stopTime="0.00" timeLoss="4.67" rerouteNo="0" devices="tripinfo_flow_0.17" vType="vtype" speedFactor="0.96" vaporized=""/>
    <tripinfo id="flow_2.17" depart="153.00" departLane="3to2_0" departPos="5.10" departSpeed="15.01" departDelay="0.00" arrival="173.00" arrivalLane="2to4_0" arrivalPos="92.80" arrivalSpeed="14.46" duration="20.00" routeLength="189.53" waitingTime="0.00" waitingCount="0" stopTime="0.00" timeLoss="6.20" rerouteNo="0" devices="tripinfo_flow_2.17" vType="vtype" speedFactor="1.08" vaporized=""/>
    <tripinfo id="flow_0.18" depart="162.00" departLane="1to2_0" departPos="5.10" departSpeed="14.95" departDelay="0.00" arrival="177.00" arrivalLane="2to5_0" arrivalPos="92.80" arrivalSpeed="14.85" duration="15.00" routeLength="189.53" waitingTime="0.00" waitingCount="0" stopTime="0.00" timeLoss="1.26" rerouteNo="0" devices="tripinfo_flow_0.18" vType="vtype" speedFactor="1.08" vaporized=""/>